LAMMPS protain data file

         387  atoms
         514  bonds
           0  angles
           0  dihedrals
           0  impropers

           5  atom types
           5  bond types
           0  angle types
           0  dihedral types
           0  improper types

-200.0	200.0	xlo xhi
-200.0	200.0	ylo yhi
-200.0	200.0	zlo zhi

Masses

           1	27.0
           2	14.0
           3	28.0
           4	60.0
           5	60.0

Atoms

           1	1	1	1	0.0	61.75600052	23.35400009	20.90500069
           2	1	1	3	0.0	63.27299881	22.9279995	19.09499931
           3	1	1	4	0.0	60.37799835	23.60000038	20.27700043
           4	1	2	1	0.0	63.22100067	20.21299934	19.35499954
           5	1	2	3	0.0	61.43299866	18.625	19.59799957
           6	1	2	4	0.0	64.43800354	19.63599968	20.09700012
           7	1	3	1	0.0	61.7120018	17.63100052	17.02099991
           8	1	3	3	0.0	63.43299866	16.02400017	17.51300049
           9	1	3	4	0.0	61.72000122	17.7840004	15.5
          10	1	4	1	0.0	61.63899994	13.95600033	17.9470005
          11	1	4	3	0.0	59.91500092	13.31299973	16.40699959
          12	1	4	4	0.0	61.13199997	13.62699986	19.34799957
          13	1	5	1	0.0	61.06600189	10.95199966	15.68299961
          14	1	5	3	0.0	59.73799896	10.0369997	17.45199966
          15	1	5	4	0.0	62.23500061	10.02499962	15.37699986
          16	1	6	1	0.0	57.81000137	9.01299953	15.71199989
          17	1	6	3	0.0	57.80899811	8.48400021	13.3760004
          18	1	6	4	0.0	56.6780014	9.95400047	16.12999916
          19	1	7	1	0.0	56.11800003	6.34000015	13.62899971
          20	1	7	3	0.0	53.97399902	6.13999987	14.68700027
          21	1	7	4	0.0	56.65000153	4.89499998	13.77000046
          22	1	8	1	0.0	52.55599976	6.56099987	12.35400009
          23	1	8	3	0.0	52.45500183	4.16499996	12.13599968
          24	1	8	4	0.0	52.18600082	7.05000019	10.95199966
          25	1	9	1	0.0	50.21099854	3.89899993	13.71100044
          26	1	9	3	0.0	48.45500183	3.01999998	12.33399963
          27	1	9	4	0.0	49.98899841	3.69099998	15.22399998
          28	1	10	1	0.0	46.83000183	5.22700024	12.6420002
          29	1	10	3	0.0	46.35100174	7.30299997	13.75500011
          30	1	10	4	0.0	45.84700012	4.30200005	13.36299992
          31	1	11	1	0.0	45.2480011	8.48900032	11.50899982
          32	1	11	3	0.0	43.08100128	7.47399998	11.51500034
          33	1	11	4	0.0	45.26399994	9.00300026	10.07800007
          34	1	12	1	0.0	42.06499863	9.05099964	13.52200031
          35	1	12	3	0.0	39.98799896	9.73999977	12.54100037
          36	1	12	4	0.0	42.10100174	9.23099995	15.04500008
          37	1	13	1	0.0	40.80199814	12.31799984	12.05599976
          38	1	13	3	0.0	42.83800125	13.54399967	12.08100033
          39	1	13	4	0.0	39.48699951	12.6079998	12.80300045
          40	1	14	1	0.0	41.68099976	15.90799999	11.30500031
          41	1	14	3	0.0	43.7879982	16.69499969	12.09200001
          42	1	14	5	0.0	40.97200012	15.79116327	9.70694201
          43	1	15	1	0.0	43.02999878	16.83200073	14.74699974
          44	1	15	3	0.0	44.45999908	16.21100044	16.54899979
          45	1	15	4	0.0	42.18600082	17.76399994	15.62800026
          46	1	16	1	0.0	44.17499924	13.52400017	16.27199936
          47	1	16	3	0.0	44.22600174	11.91699982	14.4989996
          48	1	16	4	0.0	43.18099976	12.92099953	17.28000069
          49	1	17	1	0.0	46.64300156	10.83399963	15.27600002
          50	1	17	3	0.0	47.78499985	10.39700031	17.35400009
          51	1	17	4	0.0	47.68000031	11.40400028	14.26200008
          52	1	18	1	0.0	48.02199936	7.6869998	16.91699982
          53	1	18	3	0.0	49.62900162	7.02199984	15.25199986
          54	1	18	4	0.0	47.20500183	6.39699984	17.00099945
          55	1	19	1	0.0	51.80899811	7.42399979	16.92099953
          56	1	19	3	0.0	52.18600082	6.41300011	19.06100082
          57	1	19	4	0.0	52.5019989	8.79199982	16.87700081
          58	1	20	1	0.0	54.52199936	5.16400003	18.25600052
          59	1	20	3	0.0	56.29600143	6.71099997	17.82799911
          60	1	20	4	0.0	55.20199966	4.05900002	17.44799995
          61	1	21	1	0.0	56.46699905	7.58500004	20.43099976
          62	1	21	3	0.0	56.81800079	6.47599983	22.53000069
          63	1	21	4	0.0	55.68099976	8.79300022	20.95700073
          64	1	22	1	0.0	59.60400009	6.48400021	22.27599907
          65	1	22	3	0.0	59.26200104	4.72700024	23.87899971
          66	1	22	4	0.0	59.7159996	7.38199997	23.51099968
          67	1	23	1	0.0	58.66899872	2.8210001	22.0
          68	1	23	3	0.0	56.95399857	1.24100006	22.43300056
          69	1	23	5	0.0	58.96699905	1.56656868	20.64355622
          70	1	24	1	0.0	54.99200058	3.06399989	22.97100067
          71	1	24	3	0.0	54.14300156	4.97800016	21.80200005
          72	1	24	4	0.0	54.76399994	3.33200002	24.45599937
          73	1	25	1	0.0	51.70100021	3.84500003	21.19400024
          74	1	25	3	0.0	51.01800156	4.86800003	23.26000023
          75	1	25	4	0.0	50.69900131	2.71099997	20.96500015
          76	1	26	1	0.0	50.2140007	7.23099995	22.0739994
          77	1	26	3	0.0	49.73500061	8.24699974	19.95700073
          78	1	26	4	0.0	51.35900116	8.07299995	22.65299988
          79	1	27	1	0.0	47.40800095	9.45800018	20.82699966
          80	1	27	3	0.0	48.05699921	11.38500023	22.11400032
          81	1	27	4	0.0	45.93099976	9.30599976	21.25699997
          82	1	28	1	0.0	48.37200165	13.01099968	19.8939991
          83	1	28	3	0.0	46.52299881	13.49499989	18.45199966
          84	1	28	4	0.0	49.62799835	13.24199963	19.04199982
          85	1	29	1	0.0	46.13600159	16.06200027	19.55599976
          86	1	29	3	0.0	47.81100082	17.76799965	19.68700027
          87	1	29	4	0.0	45.31299973	16.52400017	20.76399994
          88	1	30	1	0.0	47.4090004	18.69599915	17.11199951
          89	1	30	3	0.0	46.04100037	20.48500061	17.95599937
          90	1	30	4	0.0	47.01900101	18.79100037	15.63500023
          91	1	31	1	0.0	48.20199966	21.97500038	18.85400009
          92	1	31	3	0.0	47.88499832	23.13800049	16.7689991
          93	1	31	4	0.0	49.58800125	22.38199997	19.37400055
          94	1	32	1	0.0	46.40000153	25.21999931	18.01499939
          95	1	32	3	0.0	45.28499985	26.08499908	16.1060009
          96	1	32	4	0.0	47.54899979	26.16399956	17.6590004
          97	1	33	1	0.0	44.00899887	23.79999924	15.43799973
          98	1	33	3	0.0	42.57600021	22.39100075	16.75900078
          99	1	33	4	0.0	44.5870018	22.90800095	14.28999996
         100	1	34	1	0.0	40.25299835	23.26099968	15.39500046
         101	1	34	3	0.0	39.49300003	23.60300064	13.14900017
         102	1	34	4	0.0	39.38700104	24.42399979	15.88599968
         103	1	35	1	0.0	39.1590004	20.94300079	12.59700012
         104	1	35	3	0.0	37.28099823	20.11000061	13.82600021
         105	1	35	4	0.0	39.99300003	19.73500061	12.15999985
         106	1	36	1	0.0	35.54399872	20.09300041	11.72200012
         107	1	36	3	0.0	36.29000092	17.81699944	11.61900043
         108	1	36	4	0.0	35.04100037	20.28899956	10.29399967
         109	1	37	1	0.0	34.59400177	16.91300011	13.60099983
         110	1	37	3	0.0	33.11199951	16.43199921	11.77900028
         111	1	37	4	0.0	33.77899933	16.85099983	14.90100002
         112	1	38	1	0.0	33.84799957	13.76099968	11.60999966
         113	1	38	3	0.0	32.97200012	12.4090004	13.40499973
         114	1	38	4	0.0	34.98400116	12.89900017	11.02400017
         115	1	39	1	0.0	29.8920002	14.80500031	10.55900002
         116	1	39	3	0.0	28.95199966	16.50799942	9.15600014
         117	1	39	4	0.0	29.96800041	13.85200024	9.34399986
         118	1	40	1	0.0	30.47400093	18.5510006	10.28100014
         119	1	40	3	0.0	31.57600021	17.91500092	8.24300003
         120	1	40	4	0.0	31.33200073	19.375	11.24300003
         121	1	41	1	0.0	31.09300041	20.39100075	7.01399994
         122	1	41	3	0.0	33.25699997	21.08200073	7.79400015
         123	1	41	4	0.0	30.49399948	21.76499939	6.69700003
         124	1	42	1	0.0	34.63499832	19.77199936	5.71899986
         125	1	42	3	0.0	36.57600021	18.72100067	6.6789999
         126	1	42	4	0.0	35.22800064	21.18700027	5.79699993
         127	1	43	1	0.0	35.13499832	17.19400024	8.46000004
         128	1	43	3	0.0	37.03300095	15.81999969	8.02299976
         129	1	43	5	0.0	34.56700134	15.88547396	9.27744152
         130	1	44	1	0.0	35.9090004	14.38500023	5.99300003
         131	1	44	3	0.0	38.04600143	14.19999981	4.91800022
         132	1	44	4	0.0	34.78499985	13.76099968	5.15999985
         133	1	45	1	0.0	38.0320015	16.76499939	3.8829999
         134	1	45	3	0.0	40.3769989	16.5359993	4.33099985
         135	1	45	4	0.0	37.6269989	18.15699959	3.3829999
         136	1	46	1	0.0	40.18399811	17.65999985	6.88999987
         137	1	46	3	0.0	42.05099869	16.21999931	7.30200005
         138	1	46	4	0.0	39.6629982	18.36100006	8.1420002
         139	1	47	1	0.0	40.49200058	14.00199986	7.91200018
         140	1	47	3	0.0	42.38399887	12.81900024	7.05600023
         141	1	47	4	0.0	39.32699966	13.06999969	8.26299953
         142	1	48	1	0.0	41.49399948	12.82600021	4.44099998
         143	1	48	3	0.0	43.81299973	12.92599964	3.81500006
         144	1	48	4	0.0	40.61199951	12.88899994	3.20900011
         145	1	49	1	0.0	43.98699951	15.67599964	4.15299988
         146	1	49	3	0.0	46.18399811	14.86499977	4.67700005
         147	1	49	4	0.0	43.6590004	17.14999962	4.41200018
         148	1	50	1	0.0	45.73500061	14.8039999	7.41699982
         149	1	50	3	0.0	47.42699814	13.10099983	7.23699999
         150	1	50	4	0.0	45.07899857	14.89999962	8.80799961
         151	1	51	1	0.0	45.59700012	11.07699966	6.63199997
         152	1	51	3	0.0	47.57500076	10.19200039	5.59299994
         153	1	51	4	0.0	44.30099869	10.31499958	6.34299994
         154	1	52	1	0.0	47.1629982	11.44200039	3.18700004
         155	1	52	3	0.0	49.56299973	11.40100002	3.07399988
         156	1	52	4	0.0	46.5379982	12.18200016	2.00399995
         157	1	53	1	0.0	49.88800049	13.76799965	4.47100019
         158	1	53	3	0.0	51.95700073	12.80200005	5.21400023
         159	1	53	4	0.0	49.6269989	15.1239996	5.13199997
         160	1	54	1	0.0	50.7840004	11.42000008	7.32399988
         161	1	54	3	0.0	52.31200027	9.59300041	7.05700016
         162	1	54	4	0.0	49.91199875	11.26900005	8.57499981
         163	1	55	1	0.0	50.56200027	8.03600025	5.57299995
         164	1	55	3	0.0	52.33100128	7.01100016	4.30900002
         165	1	55	4	0.0	49.26900101	7.4000001	5.05999994
         166	1	56	1	0.0	52.66899872	9.16499996	2.59299994
         167	1	56	3	0.0	54.97800064	9.65699959	2.18600011
         168	1	56	4	0.0	52.0909996	10.05000019	1.48699999
         169	1	57	1	0.0	55.42599869	10.74600029	4.69099998
         170	1	57	3	0.0	56.18899918	8.56099987	5.30800009
         171	1	57	4	0.0	55.19800186	11.54699993	5.98000002
         172	1	58	1	0.0	58.88399887	9.17700005	4.89699984
         173	1	58	3	0.0	59.61100006	8.27600002	6.99399996
         174	1	58	4	0.0	60.0890007	9.63300037	4.06599998
         175	1	59	1	0.0	59.52199936	10.75500011	8.28499985
         176	1	59	3	0.0	57.95199966	12.56999969	8.44699955
         177	1	59	4	0.0	60.84700012	11.52000046	8.36499977
         178	1	60	1	0.0	57.09799957	11.86299992	10.99300003
         179	1	60	3	0.0	58.63299942	11.54699993	12.79699993
         180	1	60	4	0.0	55.93500137	10.94699955	11.44499969
         181	1	61	1	0.0	58.32600021	14.07299995	13.81099987
         182	1	61	3	0.0	56.33300018	15.36600018	14.14900017
         183	1	61	4	0.0	59.45500183	15.03100014	13.44099998
         184	1	62	1	0.0	56.63600159	15.37199974	16.94099998
         185	1	62	3	0.0	58.61100006	16.27400017	17.9829998
         186	1	62	4	0.0	56.10900116	14.35900021	17.98699951
         187	1	63	1	0.0	57.42399979	18.68000031	18.59600067
         188	1	63	3	0.0	55.44900131	19.74900055	19.44799995
         189	1	63	4	0.0	57.72399902	19.78499985	17.58300018
         190	1	64	1	0.0	56.14099884	19.45599937	22.08499908
         191	1	64	3	0.0	57.46900177	21.43099976	21.90600014
         192	1	64	4	0.0	56.52000046	18.70599937	23.36199951
         193	1	65	1	0.0	55.65299988	23.09399986	23.04100037
         194	1	65	3	0.0	56.55199814	22.25699997	25.09900093
         195	1	65	4	0.0	54.35699844	23.88899994	22.875
         196	1	66	1	0.0	56.77000046	24.75300026	26.29000092
         197	1	66	3	0.0	56.15999985	24.76399994	28.60700035
         198	1	66	4	0.0	57.43600082	26.13500023	26.30599976
         199	1	67	1	0.0	53.48099899	24.3560009	28.16300011
         200	1	67	3	0.0	54.02999878	22.03300095	28.39999962
         201	1	67	5	0.0	54.49200058	23.59891461	27.12024756
         202	1	68	1	0.0	51.58499908	21.29400063	29.40500069
         203	1	68	3	0.0	51.16699982	20.77400017	27.09300041
         204	1	68	4	0.0	50.20600128	21.3220005	30.06399918
         205	1	69	1	0.0	52.33399963	18.24799919	27.21299934
         206	1	69	3	0.0	51.21300125	16.59700012	25.8920002
         207	1	69	4	0.0	53.61999893	17.42499924	27.38599968
         208	1	70	1	0.0	49.08000183	16.25900078	27.58499908
         209	1	70	3	0.0	47.81800079	17.60400009	29.09799957
         210	1	70	4	0.0	49.25899887	14.91100025	28.32600021
         211	1	71	1	0.0	45.4090004	17.19300079	27.86800003
         212	1	71	3	0.0	45.32300186	15.24100018	29.28100014
         213	1	71	4	0.0	44.45999908	17.45400047	26.68700027
         214	1	72	1	0.0	42.84199905	15.84200001	30.33499908
         215	1	72	3	0.0	42.30199814	13.55000019	30.73600006
         216	1	72	4	0.0	41.56600189	16.5739994	30.76499939
         217	1	73	1	0.0	42.1780014	12.83699989	28.08600044
         218	1	73	3	0.0	43.28300095	10.91600037	27.17200089
         219	1	73	4	0.0	41.31100082	12.93299961	26.82900047
         220	1	74	1	0.0	45.78900146	11.6420002	28.05699921
         221	1	74	3	0.0	47.43299866	11.0880003	26.41799927
         222	1	74	5	0.0	44.57099915	10.08743905	26.92310236
         223	1	75	1	0.0	46.53499985	12.87899971	24.53700066
         224	1	75	3	0.0	47.65399933	14.86499977	25.2859993
         225	1	75	4	0.0	45.47800064	13.4119997	23.57299995
         226	1	76	1	0.0	49.9129982	14.43799973	23.77799988
         227	1	76	3	0.0	48.85400009	15.56400013	21.9489994
         228	1	76	5	0.0	48.75999832	13.59304652	22.72857215
         229	1	77	1	0.0	49.75400162	18.08600044	22.6779995
         230	1	77	3	0.0	52.01200104	18.88500023	22.57799911
         231	1	77	4	0.0	49.34000015	19.16300011	23.68300056
         232	1	78	1	0.0	52.18899918	18.7859993	19.86100006
         233	1	78	3	0.0	50.83100128	19.2159996	17.93199921
         234	1	78	4	0.0	53.10800171	17.57699966	19.82799911
         235	1	79	1	0.0	53.04199982	20.12899971	16.44400024
         236	1	79	3	0.0	54.5359993	18.2689991	16.22900009
         237	1	79	4	0.0	54.02600098	21.28300095	16.23399925
         238	1	80	1	0.0	53.3370018	17.24099922	13.98200035
         239	1	80	3	0.0	53.32600021	18.45800018	11.91800022
         240	1	80	4	0.0	52.14899826	16.2859993	13.74400043
         241	1	81	1	0.0	55.70899963	17.30900002	11.01399994
         242	1	81	3	0.0	56.02500153	14.95499992	10.61699963
         243	1	81	4	0.0	57.13999939	17.78800011	11.25800037
         244	1	82	1	0.0	55.49200058	15.1619997	7.87400007
         245	1	82	3	0.0	56.35100174	16.6060009	6.15700006
         246	1	82	4	0.0	54.13899994	15.0	7.20599985
         247	1	83	1	0.0	58.75500107	15.21500015	5.89099979
         248	1	83	3	0.0	59.27899933	17.37100029	4.97300005
         249	1	83	4	0.0	58.3769989	14.84399986	4.45599985
         250	1	84	1	0.0	59.5929985	18.57299995	7.42000008
         251	1	84	3	0.0	58.64899826	20.74099922	7.74499989
         252	1	84	5	0.0	59.23500061	18.07838292	7.19113529
         253	1	85	1	0.0	56.17699814	20.10300064	6.73600006
         254	1	85	3	0.0	54.7820015	18.83200073	8.19999981
         255	1	85	4	0.0	55.38299942	19.86000061	5.44299984
         256	1	86	1	0.0	54.10200119	20.96800041	9.81000042
         257	1	86	3	0.0	52.08200073	21.56599998	8.65799999
         258	1	86	4	0.0	54.19900131	22.26099968	10.62800026
         259	1	87	1	0.0	50.66899872	19.35400009	9.53199959
         260	1	87	3	0.0	48.7140007	20.75	9.44699955
         261	1	87	4	0.0	50.25999832	17.95299911	10.07400036
         262	1	88	1	0.0	49.13800049	21.90800095	11.92599964
         263	1	88	3	0.0	47.90100098	23.61300087	10.73499966
         264	1	88	4	0.0	49.74100113	22.38299942	13.25300026
         265	1	89	1	0.0	50.1629982	24.72100067	9.55700016
         266	1	89	3	0.0	48.7179985	25.30599976	7.72700024
         267	1	89	4	0.0	51.60699844	25.16699982	9.31700039
         268	1	90	1	0.0	49.17499924	22.94499969	6.31899977
         269	1	90	3	0.0	46.98799896	23.50499916	5.49399996
         270	1	90	4	0.0	49.66999817	21.55500031	5.88500023
         271	1	91	1	0.0	45.63000107	22.36499977	7.60900021
         272	1	91	3	0.0	44.0340004	24.01799965	6.92299986
         273	1	91	4	0.0	45.24900055	21.68600082	8.93099976
         274	1	92	1	0.0	45.10100174	26.00900078	8.50300026
         275	1	92	3	0.0	44.32099915	27.3920002	6.70699978
         276	1	92	4	0.0	45.83300018	26.79100037	9.62899971
         277	1	93	1	0.0	46.72399902	27.3029995	5.29699993
         278	1	93	3	0.0	45.43999863	27.67499924	3.31299996
         279	1	93	4	0.0	48.1780014	27.05900002	4.86399984
         280	1	94	1	0.0	44.54000092	25.03499985	3.18000007
         281	1	94	3	0.0	42.17200089	25.03000069	2.773
         282	1	94	4	0.0	44.71099854	23.5170002	3.125
         283	1	95	1	0.0	41.52399826	26.40800095	5.05000019
         284	1	95	3	0.0	39.4659996	25.27799988	5.50199986
         285	1	95	5	0.0	42.8730011	25.79170212	4.78118432
         286	1	96	1	0.0	40.65499878	23.06100082	6.66300011
         287	1	96	3	0.0	40.27799988	22.00499916	8.78800011
         288	1	96	4	0.0	41.28699875	21.78000069	6.12599993
         289	1	97	1	0.0	40.97800064	24.25799942	10.24199963
         290	1	97	3	0.0	41.68399811	26.50699997	9.8409996
         291	1	97	4	0.0	42.09899902	23.41300011	10.84500027
         292	1	98	1	0.0	40.85300064	27.40200043	12.34000015
         293	1	98	3	0.0	42.10900116	26.28499985	14.04599953
         294	1	98	4	0.0	39.50099945	27.90999985	12.84799957
         295	1	99	1	0.0	43.45999908	28.50200081	14.85999966
         296	1	99	3	0.0	41.77299881	29.34199905	16.33300018
         297	1	99	4	0.0	44.35400009	29.75699997	14.80599976
         298	1	100	1	0.0	42.27700043	27.45899963	18.3220005
         299	1	100	3	0.0	43.99499893	28.92900085	19.11400032
         300	1	100	4	0.0	42.31900024	26.02199936	18.81500053
         301	1	101	1	0.0	42.77600098	29.39100075	21.55500031
         302	1	101	3	0.0	44.02999878	27.48900032	22.3029995
         303	1	101	4	0.0	41.7140007	29.62299919	22.63599968
         304	1	102	1	0.0	46.17300034	29.00099945	23.2159996
         305	1	102	3	0.0	44.83200073	28.47800064	25.14299965
         306	1	102	4	0.0	47.10100174	30.15099907	23.65999985
         307	1	103	1	0.0	46.24200058	26.18400002	25.78199959
         308	1	103	3	0.0	48.45899963	25.40099907	26.28199959
         309	1	103	4	0.0	45.75	24.82699966	25.26000023
         310	1	104	1	0.0	48.35699844	26.25499916	28.95199966
         311	1	104	3	0.0	50.73600006	25.96500015	28.85700035
         312	1	104	4	0.0	48.39400101	24.79899979	29.42300034
         313	1	105	1	0.0	51.22600174	28.29000092	27.50900078
         314	1	105	3	0.0	52.99300003	27.98600006	25.9279995
         315	1	105	5	0.0	49.90599823	27.29829641	26.18499048
         316	1	106	1	0.0	51.55699921	26.31100082	24.27799988
         317	1	106	3	0.0	50.20999908	27.04800034	22.44199944
         318	1	106	4	0.0	50.91600037	24.93700027	24.05599976
         319	1	107	1	0.0	51.81499863	29.18899918	21.81699944
         320	1	107	3	0.0	52.93799973	30.56100082	20.22699928
         321	1	107	4	0.0	51.24700165	30.46899986	22.42499924
         322	1	108	1	0.0	55.25999832	29.12100029	20.20400047
         323	1	108	3	0.0	55.48500061	30.34799957	18.15699959
         324	1	108	4	0.0	56.31999969	27.99600029	20.27700043
         325	1	109	1	0.0	53.73300171	28.84600067	16.70499992
         326	1	109	3	0.0	51.89500046	29.4659996	15.29399967
         327	1	109	4	0.0	53.78699875	27.51499939	15.94299984
         328	1	110	1	0.0	50.50600052	30.8239994	17.23999977
         329	1	110	3	0.0	49.53099823	32.01800156	15.40299988
         330	1	110	4	0.0	50.01800156	31.44400024	18.55500031
         331	1	111	1	0.0	51.61500168	33.73199844	15.04100037
         332	1	111	3	0.0	51.05799866	33.59500122	12.72200012
         333	1	111	4	0.0	52.77700043	34.6969986	15.30599976
         334	1	112	1	0.0	52.77099991	31.46199989	12.2329998
         335	1	112	3	0.0	51.07600021	31.13599968	10.56200027
         336	1	112	4	0.0	53.74399948	30.29199982	12.3920002
         337	1	113	1	0.0	49.36399841	29.78800011	12.26799965
         338	1	113	3	0.0	47.4129982	30.68300056	11.18500042
         339	1	113	4	0.0	48.89199829	28.83200073	13.36800003
         340	1	114	1	0.0	47.42900085	33.05500031	12.57999992
         341	1	114	3	0.0	46.57899857	33.95299911	10.51200008
         342	1	114	4	0.0	47.6780014	34.13899994	13.63000011
         343	1	115	1	0.0	49.07400131	34.35699844	9.40999985
         344	1	115	3	0.0	48.05199814	33.85200119	7.29799986
         345	1	115	4	0.0	50.56700134	34.66400146	9.27400017
         346	1	116	1	0.0	48.39300156	31.13899994	7.49100018
         347	1	116	3	0.0	46.30699921	31.09799957	6.29300022
         348	1	116	4	0.0	48.84899902	29.74399948	7.8920002
         349	1	117	1	0.0	44.74100113	31.44300079	8.55200005
         350	1	117	3	0.0	43.18399811	32.66500092	7.18300009
         351	1	117	4	0.0	44.24100113	31.41300011	9.9989996
         352	1	118	1	0.0	44.48300171	35.07799911	7.42799997
         353	1	118	3	0.0	43.65299988	35.40999985	5.19799995
         354	1	118	4	0.0	45.39799881	36.2179985	7.88000011
         355	1	119	1	0.0	45.72299957	34.02099991	3.99099994
         356	1	119	3	0.0	44.09400177	33.34700012	2.37299991
         357	1	119	4	0.0	47.10499954	33.42699814	3.70000005
         358	1	120	1	0.0	43.27999878	31.10300064	3.74799991
         359	1	120	3	0.0	41.10499954	31.55599976	2.8039999
         360	1	120	4	0.0	43.19200134	29.92900085	4.71999979
         361	1	121	1	0.0	40.4980011	33.51699829	4.6789999
         362	1	121	3	0.0	39.39400101	34.55500031	2.81100011
         363	1	121	4	0.0	40.4640007	34.31700134	5.98099995
         364	1	122	1	0.0	41.60499954	36.04399872	2.04900002
         365	1	122	3	0.0	40.81499863	35.85499954	-0.205
         366	1	122	4	0.0	42.96699905	36.73799896	1.98699999
         367	1	123	1	0.0	41.59199905	33.23600006	-0.51899999
         368	1	123	3	0.0	39.89599991	31.83499908	-1.47399998
         369	1	123	4	0.0	42.72800064	32.22100067	-0.65200001
         370	1	124	1	0.0	38.20399857	32.04700089	0.722
         371	1	124	3	0.0	37.43099976	30.01399994	-0.285
         372	1	124	4	0.0	37.1969986	32.70800018	-0.221
         373	1	125	1	0.0	39.41699982	28.44599915	0.87099999
         374	1	125	3	0.0	38.4679985	27.88400078	3.0079999
         375	1	125	4	0.0	40.88700104	28.06599998	1.08700001
         376	1	126	1	0.0	37.07300186	25.66399956	1.972
         377	1	126	3	0.0	35.23199844	26.95899963	2.78800011
         378	1	126	4	0.0	37.94599915	24.55500031	2.54399991
         379	1	127	1	0.0	35.80400085	26.58099937	5.44099998
         380	1	127	3	0.0	34.42100143	28.51000023	5.70499992
         381	1	127	4	0.0	36.54199982	26.38299942	6.78200006
         382	1	128	1	0.0	36.13199997	30.23200035	4.45499992
         383	1	128	3	0.0	35.28499985	31.67499924	2.74300003
         384	1	128	4	0.0	37.45700073	30.99099922	4.46299982
         385	1	129	1	0.0	34.02500153	29.63199997	1.32700002
         386	1	129	3	0.0	32.43099976	30.66799927	2.76999998
         387	1	129	4	0.0	33.66400146	28.26600075	0.74000001

Bond Coeffs

           1	200.0	3.77
           2	200.0	2.41
           3	200.0	2.50
           4	200.0	1.54
           5	200.0	1.54
Bonds

           1	2	1	2
           2	4	1	3
           3	1	1	4
           4	3	2	4
           5	2	4	5
           6	4	4	6
           7	1	4	7
           8	3	5	7
           9	2	7	8
          10	4	7	9
          11	1	7	10
          12	3	8	10
          13	2	10	11
          14	4	10	12
          15	1	10	13
          16	3	11	13
          17	2	13	14
          18	4	13	15
          19	1	13	16
          20	3	14	16
          21	2	16	17
          22	4	16	18
          23	1	16	19
          24	3	17	19
          25	2	19	20
          26	4	19	21
          27	1	19	22
          28	3	20	22
          29	2	22	23
          30	4	22	24
          31	1	22	25
          32	3	23	25
          33	2	25	26
          34	4	25	27
          35	1	25	28
          36	3	26	28
          37	2	28	29
          38	4	28	30
          39	1	28	31
          40	3	29	31
          41	2	31	32
          42	4	31	33
          43	1	31	34
          44	3	32	34
          45	2	34	35
          46	4	34	36
          47	1	34	37
          48	3	35	37
          49	2	37	38
          50	4	37	39
          51	1	37	40
          52	3	38	40
          53	2	40	41
          54	5	40	42
          55	1	40	43
          56	3	41	43
          57	2	43	44
          58	4	43	45
          59	1	43	46
          60	3	44	46
          61	2	46	47
          62	4	46	48
          63	1	46	49
          64	3	47	49
          65	2	49	50
          66	4	49	51
          67	1	49	52
          68	3	50	52
          69	2	52	53
          70	4	52	54
          71	1	52	55
          72	3	53	55
          73	2	55	56
          74	4	55	57
          75	1	55	58
          76	3	56	58
          77	2	58	59
          78	4	58	60
          79	1	58	61
          80	3	59	61
          81	2	61	62
          82	4	61	63
          83	1	61	64
          84	3	62	64
          85	2	64	65
          86	4	64	66
          87	1	64	67
          88	3	65	67
          89	2	67	68
          90	5	67	69
          91	1	67	70
          92	3	68	70
          93	2	70	71
          94	4	70	72
          95	1	70	73
          96	3	71	73
          97	2	73	74
          98	4	73	75
          99	1	73	76
         100	3	74	76
         101	2	76	77
         102	4	76	78
         103	1	76	79
         104	3	77	79
         105	2	79	80
         106	4	79	81
         107	1	79	82
         108	3	80	82
         109	2	82	83
         110	4	82	84
         111	1	82	85
         112	3	83	85
         113	2	85	86
         114	4	85	87
         115	1	85	88
         116	3	86	88
         117	2	88	89
         118	4	88	90
         119	1	88	91
         120	3	89	91
         121	2	91	92
         122	4	91	93
         123	1	91	94
         124	3	92	94
         125	2	94	95
         126	4	94	96
         127	1	94	97
         128	3	95	97
         129	2	97	98
         130	4	97	99
         131	1	97	100
         132	3	98	100
         133	2	100	101
         134	4	100	102
         135	1	100	103
         136	3	101	103
         137	2	103	104
         138	4	103	105
         139	1	103	106
         140	3	104	106
         141	2	106	107
         142	4	106	108
         143	1	106	109
         144	3	107	109
         145	2	109	110
         146	4	109	111
         147	1	109	112
         148	3	110	112
         149	2	112	113
         150	4	112	114
         151	1	112	115
         152	3	113	115
         153	2	115	116
         154	4	115	117
         155	1	115	118
         156	3	116	118
         157	2	118	119
         158	4	118	120
         159	1	118	121
         160	3	119	121
         161	2	121	122
         162	4	121	123
         163	1	121	124
         164	3	122	124
         165	2	124	125
         166	4	124	126
         167	1	124	127
         168	3	125	127
         169	2	127	128
         170	5	127	129
         171	1	127	130
         172	3	128	130
         173	2	130	131
         174	4	130	132
         175	1	130	133
         176	3	131	133
         177	2	133	134
         178	4	133	135
         179	1	133	136
         180	3	134	136
         181	2	136	137
         182	4	136	138
         183	1	136	139
         184	3	137	139
         185	2	139	140
         186	4	139	141
         187	1	139	142
         188	3	140	142
         189	2	142	143
         190	4	142	144
         191	1	142	145
         192	3	143	145
         193	2	145	146
         194	4	145	147
         195	1	145	148
         196	3	146	148
         197	2	148	149
         198	4	148	150
         199	1	148	151
         200	3	149	151
         201	2	151	152
         202	4	151	153
         203	1	151	154
         204	3	152	154
         205	2	154	155
         206	4	154	156
         207	1	154	157
         208	3	155	157
         209	2	157	158
         210	4	157	159
         211	1	157	160
         212	3	158	160
         213	2	160	161
         214	4	160	162
         215	1	160	163
         216	3	161	163
         217	2	163	164
         218	4	163	165
         219	1	163	166
         220	3	164	166
         221	2	166	167
         222	4	166	168
         223	1	166	169
         224	3	167	169
         225	2	169	170
         226	4	169	171
         227	1	169	172
         228	3	170	172
         229	2	172	173
         230	4	172	174
         231	1	172	175
         232	3	173	175
         233	2	175	176
         234	4	175	177
         235	1	175	178
         236	3	176	178
         237	2	178	179
         238	4	178	180
         239	1	178	181
         240	3	179	181
         241	2	181	182
         242	4	181	183
         243	1	181	184
         244	3	182	184
         245	2	184	185
         246	4	184	186
         247	1	184	187
         248	3	185	187
         249	2	187	188
         250	4	187	189
         251	1	187	190
         252	3	188	190
         253	2	190	191
         254	4	190	192
         255	1	190	193
         256	3	191	193
         257	2	193	194
         258	4	193	195
         259	1	193	196
         260	3	194	196
         261	2	196	197
         262	4	196	198
         263	1	196	199
         264	3	197	199
         265	2	199	200
         266	5	199	201
         267	1	199	202
         268	3	200	202
         269	2	202	203
         270	4	202	204
         271	1	202	205
         272	3	203	205
         273	2	205	206
         274	4	205	207
         275	1	205	208
         276	3	206	208
         277	2	208	209
         278	4	208	210
         279	1	208	211
         280	3	209	211
         281	2	211	212
         282	4	211	213
         283	1	211	214
         284	3	212	214
         285	2	214	215
         286	4	214	216
         287	1	214	217
         288	3	215	217
         289	2	217	218
         290	4	217	219
         291	1	217	220
         292	3	218	220
         293	2	220	221
         294	5	220	222
         295	1	220	223
         296	3	221	223