ITEM: TIMESTEP
0
ITEM: NUMBER OF ATOMS
387
ITEM: BOX BOUNDS ss ss ss
28.912 64.478
1.201 36.778
-1.514 30.805
ITEM: ATOMS id type xs ys zs
1 1 0.923466 0.622678 0.693679
2 3 0.966119 0.610704 0.637674
3 4 0.884721 0.629592 0.674247
4 1 0.964657 0.53439 0.645719
5 3 0.914384 0.489755 0.653238
6 4 0.998875 0.518172 0.668678
7 1 0.922229 0.461815 0.573502
8 3 0.970618 0.416646 0.588725
9 4 0.922454 0.466116 0.52644
10 1 0.920176 0.358518 0.602154
11 3 0.871703 0.340445 0.554504
12 4 0.905921 0.349271 0.645503
13 1 0.904066 0.274082 0.532102
14 3 0.866727 0.248363 0.586837
15 4 0.936934 0.248025 0.522634
16 1 0.812518 0.21958 0.532999
17 3 0.812489 0.204711 0.46072
18 4 0.780689 0.24603 0.545933
19 1 0.764944 0.144447 0.468548
20 3 0.704662 0.138826 0.501284
21 4 0.779902 0.103831 0.472911
22 1 0.664792 0.150659 0.429097
23 3 0.661952 0.0833123 0.422352
24 4 0.654389 0.164404 0.385717
25 1 0.598858 0.0758355 0.471085
26 3 0.549485 0.0511285 0.428479
27 4 0.592616 0.069989 0.5179
28 1 0.503796 0.113163 0.438009
29 3 0.490328 0.171515 0.472447
30 4 0.476157 0.0871631 0.460317
31 1 0.459315 0.204851 0.402952
32 3 0.398386 0.176322 0.403137
33 4 0.459765 0.219299 0.358674
34 1 0.369819 0.220648 0.465237
35 3 0.311421 0.240015 0.434884
36 4 0.370832 0.225708 0.512361
37 1 0.334308 0.312477 0.419877
38 3 0.391554 0.346938 0.42065
39 4 0.297334 0.320628 0.44299
40 1 0.359023 0.413385 0.39664
41 3 0.418265 0.435506 0.420991
42 5 0.339088 0.410101 0.347193
43 1 0.396952 0.439357 0.503141
44 3 0.437159 0.421902 0.558897
45 4 0.373222 0.465554 0.5304
46 1 0.429146 0.346375 0.550326
47 3 0.43058 0.301206 0.495467
48 4 0.401198 0.329426 0.581516
49 1 0.498538 0.270765 0.519509
50 3 0.530647 0.258482 0.583805
51 4 0.527695 0.286786 0.488134
52 1 0.537311 0.182309 0.570284
53 3 0.582495 0.163617 0.518766
54 4 0.51434 0.146049 0.572883
55 1 0.643789 0.174916 0.570407
56 3 0.654389 0.146499 0.636622
57 4 0.663274 0.213368 0.569046
58 1 0.72007 0.111392 0.611714
59 3 0.769949 0.154875 0.598471
60 4 0.739189 0.0803328 0.586714
61 1 0.774757 0.179442 0.679012
62 3 0.784626 0.14827 0.743959
63 4 0.752657 0.213396 0.695288
64 1 0.862959 0.148495 0.736099
65 3 0.853343 0.099109 0.785699
66 4 0.866108 0.173736 0.774312
67 1 0.83667 0.045535 0.72756
68 3 0.78845 0.00112432 0.740957
69 5 0.845049 0.0102754 0.685589
70 1 0.733285 0.0523653 0.757604
71 3 0.709413 0.106164 0.721433
72 4 0.726874 0.0598982 0.803552
73 1 0.640752 0.0743177 0.702621
74 3 0.621549 0.103072 0.766546
75 4 0.612579 0.0424432 0.695535
76 1 0.598943 0.169492 0.729849
77 3 0.585475 0.198049 0.664346
78 4 0.631136 0.193159 0.747764
79 1 0.520047 0.232088 0.691265
80 3 0.538295 0.286252 0.731087
81 4 0.478519 0.227816 0.70457
82 1 0.547152 0.331956 0.662397
83 3 0.495164 0.34556 0.617779
84 4 0.582466 0.338449 0.636035
85 1 0.484283 0.417714 0.651938
86 3 0.531378 0.465666 0.655992
87 4 0.461143 0.4307 0.689316
88 1 0.520075 0.49175 0.576317
89 3 0.481612 0.542036 0.602432
90 4 0.50911 0.494421 0.530617
91 1 0.542372 0.583917 0.630218
92 3 0.533459 0.616606 0.565704
93 4 0.581342 0.595357 0.646307
94 1 0.491706 0.675127 0.604258
95 3 0.460355 0.699441 0.54519
96 4 0.524012 0.701661 0.593242
97 1 0.424478 0.635214 0.524521
98 3 0.384187 0.59561 0.565395
99 4 0.44073 0.610141 0.489
100 1 0.318872 0.620064 0.523191
101 3 0.297503 0.629677 0.453696
102 4 0.294523 0.652753 0.538383
103 1 0.288112 0.554909 0.436616
104 3 0.235309 0.531495 0.474643
105 4 0.311562 0.520955 0.423095
106 1 0.18647 0.531017 0.409542
107 3 0.207445 0.467043 0.406355
108 4 0.172328 0.536526 0.365358
109 1 0.159759 0.441634 0.467682
110 3 0.11809 0.428114 0.411306
111 4 0.136844 0.439891 0.507906
112 1 0.138784 0.353037 0.406077
113 3 0.114154 0.315035 0.461617
114 4 0.170725 0.328808 0.387945
115 1 0.0275544 0.382382 0.373557
116 3 0.00112467 0.43025 0.330146
117 4 0.0296913 0.355595 0.335963
118 1 0.0439184 0.487675 0.364956
119 3 0.074903 0.469798 0.301897
120 4 0.0680425 0.510836 0.394721
121 1 0.0613226 0.539393 0.26387
122 3 0.122167 0.558816 0.288004
123 4 0.0444807 0.578014 0.254061
124 1 0.160912 0.521995 0.2238
125 3 0.215487 0.492453 0.253504
126 4 0.177585 0.561767 0.226214
127 1 0.17497 0.449532 0.308611
128 3 0.228336 0.410912 0.29509
129 5 0.159 0.412752 0.333904
130 1 0.196733 0.370577 0.232278
131 3 0.256818 0.365377 0.199016
132 4 0.16513 0.353037 0.206504
133 1 0.256425 0.437474 0.166992
134 3 0.322358 0.431037 0.180853
135 4 0.245037 0.4766 0.151521
136 1 0.316932 0.46263 0.260033
137 3 0.369426 0.422155 0.272781
138 4 0.302283 0.482334 0.298772
139 1 0.325592 0.359811 0.291655
140 3 0.378789 0.326559 0.265169
141 4 0.292836 0.333614 0.302516
142 1 0.353765 0.326756 0.184257
143 3 0.418968 0.329567 0.164888
144 4 0.328966 0.328527 0.146137
145 1 0.42386 0.406864 0.175346
146 3 0.485632 0.384068 0.191559
147 4 0.414638 0.448295 0.18336
148 1 0.473008 0.382354 0.276339
149 3 0.520581 0.334486 0.27077
150 4 0.454563 0.385052 0.319379
151 1 0.469128 0.277595 0.25205
152 3 0.524743 0.252719 0.219902
153 4 0.432688 0.256177 0.243108
154 1 0.513159 0.287855 0.145456
155 3 0.580639 0.286702 0.14196
156 4 0.495586 0.308654 0.108852
157 1 0.589777 0.353234 0.185185
158 3 0.64795 0.326081 0.208175
159 4 0.582438 0.391348 0.205638
160 1 0.614969 0.287236 0.273461
161 3 0.657932 0.235883 0.2652
162 4 0.590451 0.282992 0.312169
163 1 0.608727 0.192119 0.219283
164 3 0.658466 0.163308 0.180173
165 4 0.572372 0.174242 0.20341
166 1 0.667969 0.223852 0.127077
167 3 0.732891 0.237682 0.114484
168 4 0.651718 0.248728 0.0928556
169 1 0.745487 0.268291 0.191992
170 3 0.76694 0.206875 0.211083
171 4 0.739077 0.290806 0.231876
172 1 0.842715 0.22419 0.198366
173 3 0.863156 0.198864 0.263251
174 4 0.876596 0.237007 0.172654
175 1 0.860653 0.268544 0.303196
176 3 0.81651 0.31956 0.308209
177 4 0.897908 0.290047 0.305672
178 1 0.792498 0.299688 0.386986
179 3 0.835658 0.290806 0.442805
180 4 0.759799 0.273941 0.400972
181 1 0.827026 0.361807 0.474179
182 3 0.770989 0.398151 0.484638
183 4 0.85877 0.388734 0.462731
184 1 0.779508 0.398319 0.571026
185 3 0.835039 0.423673 0.603267
186 4 0.764691 0.369846 0.603391
187 1 0.801664 0.491301 0.622235
188 3 0.746134 0.521348 0.648597
189 4 0.810099 0.52236 0.590891
190 1 0.765591 0.513112 0.73019
191 3 0.80293 0.568626 0.724651
192 4 0.776247 0.492031 0.769702
193 1 0.75187 0.615369 0.75977
194 3 0.777147 0.591843 0.823448
195 4 0.71543 0.637715 0.754634
196 1 0.783276 0.662001 0.860299
197 3 0.766125 0.66231 0.93199
198 4 0.802002 0.700846 0.860794
199 1 0.6908 0.650842 0.918252
200 3 0.706236 0.585547 0.925586
201 5 0.719226 0.629562 0.885988
202 1 0.637491 0.564775 0.956682
203 3 0.625738 0.550159 0.885145
204 4 0.598718 0.565562 0.977072
205 1 0.65855 0.479158 0.888858
206 3 0.627031 0.432752 0.847984
207 4 0.694708 0.456025 0.894211
208 1 0.567058 0.423251 0.900368
209 3 0.531575 0.461056 0.947183
210 4 0.572091 0.385361 0.923296
211 1 0.463842 0.449504 0.909125
212 3 0.461424 0.394637 0.952845
213 4 0.437159 0.45684 0.872583
214 1 0.391666 0.41153 0.985457
215 3 0.376483 0.347106 0.997865
216 4 0.355789 0.432105 0.998762
217 1 0.372997 0.327065 0.91587
218 3 0.404066 0.27307 0.887589
219 4 0.348619 0.329764 0.876976
220 1 0.474526 0.293476 0.914973
221 3 0.52075 0.277904 0.864259
222 5 0.44028 0.24978 0.879888
223 1 0.495501 0.328246 0.806058
224 3 0.526964 0.384068 0.829234
225 4 0.465782 0.343227 0.776231
226 1 0.59048 0.372066 0.782574
227 3 0.560704 0.403716 0.725982
228 5 0.558061 0.348316 0.750103
229 1 0.586009 0.474604 0.748538
230 3 0.649497 0.497063 0.745444
231 4 0.574369 0.504877 0.779634
232 1 0.654473 0.49428 0.661376
233 3 0.616291 0.506366 0.601689
234 4 0.680313 0.460297 0.660355
235 1 0.678457 0.532029 0.555648
236 3 0.720463 0.479748 0.548996
237 4 0.706124 0.564466 0.549151
238 1 0.686751 0.450853 0.47947
239 3 0.686442 0.485061 0.415607
240 4 0.653349 0.42401 0.472106
241 1 0.753444 0.452764 0.387636
242 3 0.762329 0.386598 0.375352
243 4 0.793679 0.466228 0.395186
244 1 0.747343 0.392416 0.290479
245 3 0.771495 0.433005 0.237353
246 4 0.709301 0.387863 0.26981
247 1 0.839088 0.393906 0.229122
248 3 0.853821 0.454507 0.200718
249 4 0.82846 0.383478 0.184721
250 1 0.86265 0.488293 0.276432
251 3 0.836107 0.549231 0.286488
252 5 0.852584 0.47439 0.26935
253 1 0.766603 0.531298 0.255268
254 3 0.72738 0.495573 0.300566
255 4 0.744278 0.524468 0.21526
256 1 0.708261 0.555612 0.350382
257 3 0.651465 0.57242 0.314737
258 4 0.710988 0.591955 0.375692
259 1 0.611736 0.510245 0.34178
260 3 0.556768 0.549484 0.33915
261 4 0.600236 0.470866 0.358551
262 1 0.568689 0.582033 0.415854
263 3 0.533909 0.629958 0.379003
264 4 0.585644 0.595385 0.456914
265 1 0.597509 0.661101 0.342554
266 3 0.55688 0.677544 0.285931
267 4 0.638109 0.673637 0.335128
268 1 0.569729 0.611181 0.242365
269 3 0.508238 0.626922 0.216838
270 4 0.583647 0.572111 0.228937
271 1 0.470056 0.594879 0.28228
272 3 0.425181 0.641341 0.261054
273 4 0.459343 0.575793 0.323185
274 1 0.455182 0.697304 0.309942
275 3 0.433251 0.736178 0.25437
276 4 0.475763 0.719285 0.344782
277 1 0.500815 0.733676 0.210743
278 3 0.464713 0.744132 0.149355
279 4 0.541697 0.726818 0.197345
280 1 0.439408 0.669927 0.14524
281 3 0.372828 0.669787 0.132646
282 4 0.444216 0.627259 0.143538
283 1 0.354608 0.70852 0.2031
284 3 0.296744 0.676757 0.217086
285 5 0.392538 0.691197 0.194783
286 1 0.330175 0.614442 0.253009
287 3 0.319575 0.58476 0.31876
288 4 0.347945 0.578436 0.236393
289 1 0.339257 0.648087 0.363749
290 3 0.359107 0.711302 0.351341
291 4 0.370775 0.624336 0.382407
292 1 0.335742 0.736459 0.428664
293 3 0.371057 0.705062 0.481451
294 4 0.297728 0.750738 0.444383
295 1 0.409042 0.767378 0.506637
296 3 0.361609 0.790989 0.552214
297 4 0.434179 0.802653 0.504966
298 1 0.37578 0.738061 0.613757
299 3 0.424085 0.77938 0.638262
300 4 0.376961 0.69767 0.629011
301 1 0.38981 0.792366 0.713791
302 3 0.425069 0.738904 0.736935
303 4 0.359951 0.798887 0.747238
304 1 0.485323 0.781404 0.765185
305 3 0.447618 0.766703 0.824809
306 4 0.511415 0.813728 0.778923
307 1 0.487263 0.702223 0.844581
308 3 0.549598 0.680215 0.860051
309 4 0.47343 0.664081 0.828429
310 1 0.54673 0.704219 0.942665
311 3 0.61362 0.696068 0.939726
312 4 0.54777 0.663294 0.957239
313 1 0.627397 0.761419 0.898017
314 3 0.677079 0.752874 0.849098
315 5 0.590283 0.733544 0.85705
316 1 0.636704 0.705793 0.798045
317 3 0.59883 0.726509 0.741236
318 4 0.618681 0.667173 0.791175
319 1 0.643958 0.786688 0.721897
320 3 0.675533 0.825252 0.6727
321 4 0.627987 0.822666 0.74071
322 1 0.74082 0.784777 0.671989
323 3 0.747146 0.819265 0.608651
324 4 0.770624 0.753155 0.674247
325 1 0.697886 0.777047 0.563724
326 3 0.646207 0.794474 0.520066
327 4 0.699404 0.739635 0.540147
328 1 0.607153 0.832645 0.580278
329 3 0.579739 0.866206 0.523438
330 4 0.593432 0.850072 0.620966
331 1 0.638334 0.914383 0.512237
332 3 0.622673 0.910532 0.440484
333 4 0.671006 0.941507 0.520437
334 1 0.670837 0.850578 0.425354
335 3 0.623179 0.841414 0.37365
336 4 0.698195 0.817691 0.430273
337 1 0.575043 0.803525 0.426436
338 3 0.520188 0.828681 0.392927
339 4 0.561772 0.776653 0.460472
340 1 0.520638 0.895354 0.43609
341 3 0.496738 0.920595 0.372103
342 4 0.527639 0.925823 0.468579
343 1 0.56689 0.93195 0.338006
344 3 0.538154 0.917756 0.272657
345 4 0.608868 0.94058 0.333797
346 1 0.547742 0.841499 0.278629
347 3 0.489091 0.840346 0.241561
348 4 0.560563 0.802288 0.291036
349 1 0.44506 0.850044 0.311458
350 3 0.401282 0.884392 0.269099
351 4 0.431002 0.8492 0.35623
352 1 0.437806 0.952216 0.276679
353 3 0.414469 0.961548 0.20768
354 4 0.463533 0.984259 0.290665
355 1 0.47267 0.922506 0.170333
356 3 0.426868 0.903561 0.12027
357 4 0.511528 0.90581 0.161329
358 1 0.403981 0.840487 0.162814
359 3 0.342827 0.85322 0.133606
360 4 0.401507 0.807488 0.19289
361 1 0.325761 0.90834 0.191621
362 3 0.29472 0.937516 0.133822
363 4 0.324805 0.930826 0.231907
364 1 0.356886 0.979369 0.110245
365 3 0.334673 0.974056 0.0405025
366 4 0.395181 0.998876 0.108326
367 1 0.35652 0.900441 0.0307868
368 3 0.308834 0.861062 0.00123766
369 4 0.388461 0.871912 0.0266716
370 1 0.261261 0.867021 0.0691853
371 3 0.239526 0.809877 0.0380272
372 4 0.232947 0.8856 0.0400074
373 1 0.295366 0.765804 0.0737956
374 3 0.268684 0.750007 0.139918
375 4 0.336698 0.755123 0.080479
376 1 0.229461 0.687607 0.107862
377 3 0.177698 0.724007 0.133111
378 4 0.254007 0.656435 0.125561
379 1 0.193781 0.713382 0.215198
380 3 0.154895 0.767603 0.223367
381 4 0.214531 0.707817 0.256691
382 1 0.203003 0.816005 0.18469
383 3 0.179188 0.856565 0.131718
384 4 0.240258 0.837339 0.184938
385 1 0.143761 0.79914 0.0879049
386 3 0.0989428 0.82826 0.132554
387 4 0.133611 0.760744 0.0697423
