LAMMPS protain data file

         174  atoms
         230  bonds
           0  angles
           0  dihedrals
           0  impropers

           5  atom types
           5  bond types
           0  angle types
           0  dihedral types
           0  improper types

-200.0	200.0	xlo xhi
-200.0	200.0	ylo yhi
-200.0	200.0	zlo zhi

Masses

           1	27.0
           2	14.0
           3	28.0
           4	60.0
           5	60.0

Atoms

           1	1	1	1	0.0	31.71800041	13.29199982	-12.18799973
           2	1	1	3	0.0	33.99599838	12.44099998	-12.22500038
           3	1	1	4	0.0	30.88599968	12.10299969	-11.72399998
           4	1	2	1	0.0	34.97600174	13.36699963	-9.84000015
           5	1	2	3	0.0	33.9620018	11.30599976	-9.39099979
           6	1	2	4	0.0	34.92200089	14.14500046	-8.52299976
           7	1	3	1	0.0	36.39500046	9.97099972	-9.48900032
           8	1	3	3	0.0	35.18999863	8.34899998	-8.11200047
           9	1	3	4	0.0	37.86999893	9.56200027	-9.57499981
          10	1	4	1	0.0	35.54600143	9.85400009	-5.80000019
          11	1	4	3	0.0	33.48699951	9.04300022	-4.91099977
          12	1	4	4	0.0	36.06000137	10.65299988	-4.67799997
          13	1	5	1	0.0	31.77300072	10.20800018	-6.68100023
          14	1	5	3	0.0	30.23399925	8.46100044	-6.96700001
          15	1	5	4	0.0	31.19499969	11.25500011	-7.63000011
          16	1	6	1	0.0	32.05699921	6.76300001	-8.27900028
          17	1	6	3	0.0	32.09600067	4.55900002	-7.35400009
          18	1	6	4	0.0	32.87200165	6.42199993	-9.51799965
          19	1	7	1	0.0	33.50299835	5.11800003	-5.11000013
          20	1	7	3	0.0	31.39800072	5.56099987	-4.07600021
          21	1	7	4	0.0	34.65399933	5.6880002	-4.24499989
          22	1	8	1	0.0	31.20299911	3.08699989	-2.88800001
          23	1	8	3	0.0	32.28699875	4.21899986	-1.16999996
          24	1	8	4	0.0	31.47699928	1.58399999	-2.6730001
          25	1	9	1	0.0	30.04000092	4.58300018	0.324
          26	1	9	3	0.0	30.61300087	2.52699995	1.26900005
          27	1	9	4	0.0	28.50900078	4.63700008	0.60900003
          28	1	10	1	0.0	32.22100067	3.70600009	3.27099991
          29	1	10	3	0.0	31.74200058	5.00600004	5.23600006
          30	1	10	4	0.0	33.61899948	4.30200005	3.1400001
          31	1	11	1	0.0	30.70800018	2.89199996	6.62099981
          32	1	11	3	0.0	31.88100052	3.76900005	8.51900005
          33	1	11	4	0.0	29.88899994	1.64600003	6.94299984
          34	1	12	1	0.0	34.15000153	2.34100008	8.10499954
          35	1	12	3	0.0	33.02799988	0.759	9.53999996
          36	1	12	5	0.0	32.95500183	2.78581191	7.58348724
          37	1	13	1	0.0	35.2140007	0.47299999	11.2510004
          38	1	13	3	0.0	34.60699844	0.131	13.47299957
          39	1	13	4	0.0	36.77099991	0.43900001	11.40799999
          40	1	14	1	0.0	33.45000076	2.55699992	13.90600014
          41	1	14	3	0.0	31.41399956	1.80499995	12.9090004
          42	1	14	4	0.0	33.73699951	4.03399992	14.12100029
          43	1	15	1	0.0	30.05999947	1.51900005	15.28600025
          44	1	15	3	0.0	27.92000008	2.15899992	16.05999947
          45	1	15	4	0.0	30.20599937	0.57499999	16.48399925
          46	1	16	1	0.0	27.9829998	4.79500008	15.21899986
          47	1	16	3	0.0	27.43199921	3.63800001	13.16499996
          48	1	16	4	0.0	28.44599915	6.24800014	15.00300026
          49	1	17	1	0.0	24.93700027	4.8920002	12.96000004
          50	1	17	3	0.0	23.56100082	6.87599993	13.16399956
          51	1	17	4	0.0	23.69599915	4.07399988	13.2869997
          52	1	18	1	0.0	25.15999985	8.30700016	11.39700031
          53	1	18	3	0.0	25.30699921	7.8210001	9.04399967
          54	1	18	4	0.0	26.45599937	9.14299965	11.47299957
          55	1	19	1	0.0	22.91600037	8.75899982	8.37199974
          56	1	19	3	0.0	23.40299988	11.06099987	7.89799976
          57	1	19	4	0.0	21.39699936	8.8760004	8.39700031
          58	1	20	1	0.0	24.78000069	10.45499992	5.49300003
          59	1	20	3	0.0	23.66300011	9.11999989	3.81599998
          60	1	20	4	0.0	26.3010006	10.27299976	5.54199982
          61	1	21	1	0.0	24.25499916	10.95300007	1.755
          62	1	21	3	0.0	26.63500023	10.89400005	1.47300005
          63	1	21	4	0.0	23.74300003	12.25899982	1.14499998
          64	1	22	1	0.0	26.40699959	9.35000038	-0.93300003
          65	1	22	3	0.0	24.59600067	9.29199982	-2.49300003
          66	1	22	4	0.0	27.03100014	8.02900028	-0.75400001
          67	1	23	1	0.0	26.22200012	9.65499973	-4.72300005
          68	1	23	3	0.0	27.35000038	7.58400011	-5.21500015
          69	1	23	4	0.0	27.09399986	10.57199955	-5.57000017
          70	1	24	1	0.0	24.98699951	6.37699986	-6.16499996
          71	1	24	3	0.0	24.13899994	7.02600002	-8.32199955
          72	1	24	4	0.0	23.63800049	5.76800013	-5.78200006
          73	1	25	1	0.0	26.52300072	6.6960001	-9.64500046
          74	1	25	3	0.0	25.45800018	6.18100023	-11.73600006
          75	1	25	4	0.0	28.02300072	6.70599985	-9.96700001
          76	1	26	1	0.0	24.5890007	3.6099999	-10.99800014
          77	1	26	3	0.0	22.60000038	4.13000011	-12.24400043
          78	1	26	4	0.0	24.6079998	2.23300004	-10.3409996
          79	1	27	1	0.0	21.26199913	5.35699987	-10.06999969
          80	1	27	3	0.0	20.18899918	7.31400013	-10.94799995
          81	1	27	4	0.0	20.71199989	5.30200005	-8.625
          82	1	28	1	0.0	22.44199944	8.87300014	-10.83699989
          83	1	28	3	0.0	21.31800079	10.86200047	-10.08399963
          84	1	28	5	0.0	22.43499947	9.08553522	-11.18679242
          85	1	29	1	0.0	21.0	9.96000004	-7.38199997
          86	1	29	3	0.0	22.46299934	8.8579998	-5.84399986
          87	1	29	4	0.0	19.72400093	9.15799999	-7.04899979
          88	1	30	1	0.0	22.25699997	10.92700005	-3.921
          89	1	30	3	0.0	20.06299973	10.5	-3.1400001
          90	1	30	4	0.0	22.47999954	12.35900021	-3.44899988
          91	1	31	1	0.0	20.96199989	8.41699982	-1.41600001
          92	1	31	3	0.0	22.73200035	8.70699978	0.145
          93	1	31	4	0.0	20.87700081	7.01300001	-2.04699993
          94	1	32	1	0.0	21.34799957	7.62599993	2.29399991
          95	1	32	3	0.0	21.87100029	5.32800007	1.80599999
          96	1	32	4	0.0	20.24200058	7.71299982	3.35800004
          97	1	33	1	0.0	23.83799934	5.24399996	3.85700011
          98	1	33	3	0.0	24.05900002	6.58300018	5.82499981
          99	1	33	4	0.0	25.02099991	4.87400007	3.08500004
         100	1	34	1	0.0	24.97999954	4.52899981	7.38500023
         101	1	34	3	0.0	27.24600029	3.73399997	7.10599995
         102	1	34	4	0.0	24.44199944	3.352	8.20100021
         103	1	35	1	0.0	28.375	5.99599981	8.39599991
         104	1	35	3	0.0	27.9090004	5.98699999	10.76599979
         105	1	35	4	0.0	28.63400078	7.45499992	8.06499958
         106	1	36	1	0.0	30.12999916	4.42000008	11.35200024
         107	1	36	3	0.0	31.02199936	5.15299988	13.44900036
         108	1	36	5	0.0	29.7670002	3.00098063	11.30601974
         109	1	37	1	0.0	31.55200005	7.72700024	12.67700005
         110	1	37	3	0.0	33.47100067	8.98600006	13.40200043
         111	1	37	5	0.0	31.15500069	8.09052953	12.70430761
         112	1	38	1	0.0	35.2820015	7.50199986	11.82400036
         113	1	38	3	0.0	35.1969986	6.2420001	9.81099987
         114	1	38	4	0.0	36.1230011	6.88800001	12.93500042
         115	1	39	1	0.0	37.59400177	7.44999981	8.81700039
         116	1	39	3	0.0	36.80500031	6.79799986	6.61899996
         117	1	39	4	0.0	38.31399918	6.11899996	9.01299953
         118	1	40	1	0.0	35.1269989	8.95699978	6.40600014
         119	1	40	3	0.0	37.11800003	9.4829998	5.14900017
         120	1	40	4	0.0	34.39300156	10.28800011	6.62599993
         121	1	41	1	0.0	35.84799957	8.91300011	2.66899991
         122	1	41	3	0.0	34.27000046	10.71500015	2.72399998
         123	1	41	4	0.0	35.72399902	7.65899992	1.80999994
         124	1	42	1	0.0	35.00500107	11.76000023	0.28799999
         125	1	42	3	0.0	32.80799866	12.65499973	-0.119
         126	1	42	4	0.0	35.86000061	12.07699966	-0.93800002
         127	1	43	1	0.0	31.59199905	10.28199959	-1.06299996
         128	1	43	3	0.0	30.18499947	8.98799992	0.426
         129	1	43	4	0.0	31.5170002	9.10900021	-2.03699994
         130	1	44	1	0.0	29.99099922	11.1420002	2.28800011
         131	1	44	3	0.0	30.5170002	13.45899963	2.67600012
         132	1	44	4	0.0	30.99699974	10.63300037	3.3039999
         133	1	45	1	0.0	27.75099945	14.25399971	2.58999991
         134	1	45	3	0.0	25.95199966	13.46000004	3.95900011
         135	1	45	4	0.0	27.19300079	14.66899967	1.31299996
         136	1	46	1	0.0	25.75499916	15.7510004	5.41800022
         137	1	46	3	0.0	23.43400002	16.15999985	5.60900021
         138	1	46	4	0.0	26.28700066	16.84000015	6.35300016
         139	1	47	1	0.0	23.06999969	16.99900055	2.98099995
         140	1	47	3	0.0	23.99399948	16.29000092	0.866
         141	1	47	4	0.0	22.81999969	18.50799942	3.03200006
         142	1	48	1	0.0	21.51499939	16.09799957	-0.39300001
         143	1	48	3	0.0	22.52099991	16.88699913	-2.41599989
         144	1	48	4	0.0	19.99699974	15.96500015	-0.62599999
         145	1	49	1	0.0	22.47299957	19.57699966	-1.64999998
         146	1	49	3	0.0	24.54599953	19.8579998	-2.83699989
         147	1	49	4	0.0	22.06100082	20.91600037	-1.00100005
         148	1	50	1	0.0	26.12000084	19.07600021	-0.74299997
         149	1	50	3	0.0	27.43199921	18.09799957	-2.602
         150	1	50	4	0.0	26.72599983	18.72200012	0.625
         151	1	51	1	0.0	26.04999924	15.72000027	-2.55100012
         152	1	51	3	0.0	26.56500053	15.75399971	-4.86499977
         153	1	51	4	0.0	25.22400093	14.52900028	-2.05900002
         154	1	52	1	0.0	24.36499977	17.11800003	-5.65100002
         155	1	52	3	0.0	25.8010006	17.98900032	-7.37599993
         156	1	52	4	0.0	22.9470005	17.68400002	-5.65199995
         157	1	53	1	0.0	26.70100021	20.07900047	-5.93599987
         158	1	53	3	0.0	28.66300011	19.7670002	-7.32600021
         159	1	53	4	0.0	26.86199951	21.14900017	-4.86100006
         160	1	54	1	0.0	29.80400085	17.91600037	-5.71700001
         161	1	54	3	0.0	30.6609993	16.80999947	-7.64799976
         162	1	54	4	0.0	30.34399986	17.31399918	-4.42399979
         163	1	55	1	0.0	28.64999962	14.77999973	-7.5710001
         164	1	55	3	0.0	27.5890007	13.72599983	-9.3760004
         165	1	55	4	0.0	28.57900047	13.57999992	-6.6329999
         166	1	56	1	0.0	25.57299995	15.46800041	-9.64299965
         167	1	56	3	0.0	25.04899979	15.83399963	-11.97000027
         168	1	56	5	0.0	26.64100075	14.01746185	-9.05307812
         169	1	57	1	0.0	27.42099953	16.84199905	-12.73900032
         170	1	57	3	0.0	26.57099915	19.07999992	-12.375
         171	1	57	5	0.0	27.12599945	15.11238953	-12.95231765
         172	1	58	1	0.0	27.05699921	19.95800018	-14.96700001
         173	1	58	3	0.0	24.68499947	19.68799973	-15.05300045
         174	1	58	4	0.0	27.43600082	19.98999977	-16.46299934

Bond Coeffs

           1	200.0	3.77
           2	200.0	2.41
           3	200.0	2.50
           4	200.0	1.54
           5	200.0	1.54
Bonds

           1	2	1	2
           2	4	1	3
           3	1	1	4
           4	3	2	4
           5	2	4	5
           6	4	4	6
           7	1	4	7
           8	3	5	7
           9	2	7	8
          10	4	7	9
          11	1	7	10
          12	3	8	10
          13	2	10	11
          14	4	10	12
          15	1	10	13
          16	3	11	13
          17	2	13	14
          18	4	13	15
          19	1	13	16
          20	3	14	16
          21	2	16	17
          22	4	16	18
          23	1	16	19
          24	3	17	19
          25	2	19	20
          26	4	19	21
          27	1	19	22
          28	3	20	22
          29	2	22	23
          30	4	22	24
          31	1	22	25
          32	3	23	25
          33	2	25	26
          34	4	25	27
          35	1	25	28
          36	3	26	28
          37	2	28	29
          38	4	28	30
          39	1	28	31
          40	3	29	31
          41	2	31	32
          42	4	31	33
          43	1	31	34
          44	3	32	34
          45	2	34	35
          46	5	34	36
          47	1	34	37
          48	3	35	37
          49	2	37	38
          50	4	37	39
          51	1	37	40
          52	3	38	40
          53	2	40	41
          54	4	40	42
          55	1	40	43
          56	3	41	43
          57	2	43	44
          58	4	43	45
          59	1	43	46
          60	3	44	46
          61	2	46	47
          62	4	46	48
          63	1	46	49
          64	3	47	49
          65	2	49	50
          66	4	49	51
          67	1	49	52
          68	3	50	52
          69	2	52	53
          70	4	52	54
          71	1	52	55
          72	3	53	55
          73	2	55	56
          74	4	55	57
          75	1	55	58
          76	3	56	58
          77	2	58	59
          78	4	58	60
          79	1	58	61
          80	3	59	61
          81	2	61	62
          82	4	61	63
          83	1	61	64
          84	3	62	64
          85	2	64	65
          86	4	64	66
          87	1	64	67
          88	3	65	67
          89	2	67	68
          90	4	67	69
          91	1	67	70
          92	3	68	70
          93	2	70	71
          94	4	70	72
          95	1	70	73
          96	3	71	73
          97	2	73	74
          98	4	73	75
          99	1	73	76
         100	3	74	76
         101	2	76	77
         102	4	76	78
         103	1	76	79
         104	3	77	79
         105	2	79	80
         106	4	79	81
         107	1	79	82
         108	3	80	82
         109	2	82	83
         110	5	82	84
         111	1	82	85
         112	3	83	85
         113	2	85	86
         114	4	85	87
         115	1	85	88
         116	3	86	88
         117	2	88	89
         118	4	88	90
         119	1	88	91
         120	3	89	91
         121	2	91	92
         122	4	91	93
         123	1	91	94
         124	3	92	94
         125	2	94	95
         126	4	94	96
         127	1	94	97
         128	3	95	97
         129	2	97	98
         130	4	97	99
         131	1	97	100
         132	3	98	100
         133	2	100	101
         134	4	100	102
         135	1	100	103
         136	3	101	103
         137	2	103	104
         138	4	103	105
         139	1	103	106
         140	3	104	106
         141	2	106	107
         142	5	106	108
         143	1	106	109
         144	3	107	109
         145	2	109	110
         146	5	109	111
         147	1	109	112
         148	3	110	112
         149	2	112	113
         150	4	112	114
         151	1	112	115
         152	3	113	115
         153	2	115	116
         154	4	115	117
         155	1	115	118
         156	3	116	118
         157	2	118	119
         158	4	118	120
         159	1	118	121
         160	3	119	121
         161	2	121	122
         162	4	121	123
         163	1	121	124
         164	3	122	124
         165	2	124	125
         166	4	124	126
         167	1	124	127
         168	3	125	127
         169	2	127	128
         170	4	127	129
         171	1	127	130
         172	3	128	130
         173	2	130	131
         174	4	130	132
         175	1	130	133
         176	3	131	133
         177	2	133	134
         178	4	133	135
         179	1	133	136
         180	3	134	136
         181	2	136	137
         182	4	136	138
         183	1	136	139
         184	3	137	139
         185	2	139	140
         186	4	139	141
         187	1	139	142
         188	3	140	142
         189	2	142	143
         190	4	142	144
         191	1	142	145
         192	3	143	145
         193	2	145	146
         194	4	145	147
         195	1	145	148
         196	3	146	148
         197	2	148	149
         198	4	148	150
         199	1	148	151
         200	3	149	151
         201	2	151	152
         202	4	151	153
         203	1	151	154
         204	3	152	154
         205	2	154	155
         206	4	154	156
         207	1	154	157
         208	3	155	157
         209	2	157	158
         210	4	157	159
         211	1	157	160
         212	3	158	160
         213	2	160	161
         214	4	160	162
         215	1	160	163
         216	3	161	163
         217	2	163	164
         218	4	163	165
         219	1	163	166
         220	3	164	166
         221	2	166	167
         222	5	166	168
         223	1	166	169
         224	3	167	169
         225	2	169	170
         226	5	169	171
         227	1	169	172
         228	3	170	172
         229	2	172	173
         230	4	172	174

