ITEM: TIMESTEP
0
ITEM: NUMBER OF ATOMS
174
ITEM: BOX BOUNDS ss ss ss
19.684 38.354
0.091 21.189
-16.503 16.524
ITEM: ATOMS id type xs ys zs
1 1 0.644564 0.625699 0.130651
2 3 0.766577 0.585364 0.12953
3 4 0.6 0.569343 0.1447
4 1 0.819068 0.629254 0.201744
5 3 0.764756 0.531567 0.215339
6 4 0.816176 0.66613 0.24162
7 1 0.895072 0.468291 0.212372
8 3 0.83053 0.391412 0.254065
9 4 0.974076 0.448905 0.209768
10 1 0.849598 0.462745 0.324068
11 3 0.739314 0.424306 0.350986
12 4 0.877129 0.500616 0.35804
13 1 0.647509 0.479524 0.297393
14 3 0.565078 0.39672 0.288733
15 4 0.616551 0.52915 0.268659
16 1 0.662721 0.316239 0.249008
17 3 0.66481 0.211774 0.277016
18 4 0.706374 0.300076 0.211494
19 1 0.740171 0.238269 0.34496
20 3 0.627424 0.259266 0.376268
21 4 0.801821 0.265286 0.371151
22 1 0.616979 0.142004 0.412238
23 3 0.67504 0.195658 0.464257
24 4 0.631655 0.070765 0.418748
25 1 0.554687 0.212911 0.509492
26 3 0.585378 0.115461 0.538105
27 4 0.472683 0.215471 0.518122
28 1 0.671505 0.171343 0.598722
29 3 0.645849 0.23296 0.658219
30 4 0.746385 0.199592 0.594756
31 1 0.590466 0.132761 0.700154
32 3 0.653294 0.174329 0.757623
33 4 0.546599 0.0737037 0.709904
34 1 0.774826 0.106645 0.745087
35 3 0.71473 0.0316618 0.788537
36 5 0.71082 0.127728 0.729297
37 1 0.831816 0.018106 0.840343
38 3 0.799304 0.00189591 0.907621
39 4 0.915212 0.0164945 0.845096
40 1 0.737333 0.116883 0.920732
41 3 0.628281 0.0812399 0.890544
42 4 0.752705 0.18689 0.927241
43 1 0.555758 0.0676841 0.962516
44 3 0.441136 0.0980188 0.985951
45 4 0.563578 0.0229406 0.998789
46 1 0.44451 0.22296 0.960487
47 3 0.414997 0.16812 0.898295
48 4 0.469309 0.291829 0.953947
49 1 0.28136 0.227557 0.892088
50 3 0.207659 0.321594 0.898265
51 4 0.21489 0.188786 0.901989
52 1 0.293305 0.389421 0.844763
53 3 0.301178 0.366385 0.773519
54 4 0.362721 0.429045 0.847065
55 1 0.173112 0.410845 0.753172
56 3 0.199197 0.519954 0.73882
57 4 0.0917514 0.41639 0.753929
58 1 0.272951 0.491231 0.666001
59 3 0.213123 0.427955 0.615224
60 4 0.354419 0.482605 0.667484
61 1 0.244831 0.514836 0.55282
62 3 0.372309 0.512039 0.544282
63 4 0.217408 0.576737 0.534351
64 1 0.360096 0.438857 0.471432
65 3 0.263096 0.436108 0.424198
66 4 0.393519 0.376244 0.476852
67 1 0.350187 0.453313 0.356678
68 3 0.410605 0.355152 0.341781
69 4 0.396893 0.496777 0.331032
70 1 0.284039 0.297943 0.313017
71 3 0.238618 0.328704 0.247706
72 4 0.211784 0.269078 0.324613
73 1 0.36631 0.313063 0.207648
74 3 0.309266 0.288653 0.144336
75 4 0.446652 0.313537 0.197899
76 1 0.262721 0.166793 0.166682
77 3 0.156186 0.19144 0.128955
78 4 0.263739 0.101526 0.186575
79 1 0.0845205 0.249597 0.19478
80 3 0.0270487 0.342355 0.168196
81 4 0.0550615 0.24699 0.238532
82 1 0.147724 0.416248 0.171557
83 3 0.0875201 0.510522 0.194356
84 5 0.147349 0.426322 0.160965
85 1 0.0704874 0.467769 0.276168
86 3 0.148848 0.415537 0.322736
87 4 0.00214247 0.429756 0.286251
88 1 0.137815 0.513603 0.380961
89 3 0.0202999 0.493364 0.404608
90 4 0.149759 0.581477 0.395252
91 1 0.068452 0.394635 0.456808
92 3 0.163257 0.40838 0.504072
93 4 0.0638993 0.328088 0.437702
94 1 0.0891269 0.357143 0.56914
95 3 0.11714 0.248223 0.554365
96 4 0.0298875 0.361266 0.601356
97 1 0.222496 0.244241 0.616465
98 3 0.234333 0.307707 0.676053
99 4 0.28586 0.226704 0.593091
100 1 0.283664 0.210352 0.723287
101 3 0.405035 0.17267 0.714839
102 4 0.254847 0.154564 0.747994
103 1 0.465506 0.279884 0.753898
104 3 0.440546 0.279458 0.825658
105 4 0.479379 0.349038 0.743876
106 1 0.559507 0.205185 0.843401
107 3 0.607284 0.239928 0.906894
108 5 0.540064 0.137927 0.842009
109 1 0.635672 0.36193 0.88352
110 3 0.738457 0.421604 0.905471
111 5 0.614408 0.379161 0.884346
112 1 0.835458 0.351266 0.857692
113 3 0.830905 0.291544 0.796742
114 4 0.880504 0.322163 0.891331
115 1 0.959293 0.348801 0.766645
116 3 0.917033 0.317897 0.700094
117 4 0.997858 0.285714 0.77258
118 1 0.827156 0.420229 0.693645
119 3 0.933798 0.445161 0.655585
120 4 0.787842 0.483316 0.700306
121 1 0.865774 0.418144 0.580495
122 3 0.781253 0.503555 0.58216
123 4 0.859132 0.358707 0.554486
124 1 0.820621 0.553086 0.508402
125 3 0.702946 0.595507 0.496079
126 4 0.866417 0.568111 0.471281
127 1 0.637815 0.483032 0.467496
128 3 0.562453 0.421699 0.512581
129 4 0.633798 0.427434 0.438005
130 1 0.552062 0.523794 0.568959
131 3 0.580236 0.633615 0.580707
132 4 0.605945 0.499668 0.599721
133 1 0.432084 0.671296 0.578103
134 3 0.335726 0.633662 0.619554
135 4 0.402196 0.690966 0.539437
136 1 0.325174 0.74225 0.66373
137 3 0.200857 0.761636 0.669513
138 4 0.353669 0.793867 0.69204
139 1 0.18136 0.801403 0.589942
140 3 0.230852 0.767798 0.525903
141 4 0.16797 0.872926 0.591486
142 1 0.0980717 0.758697 0.487783
143 3 0.151955 0.796094 0.42653
144 4 0.0167648 0.752394 0.480728
145 1 0.149384 0.923595 0.449723
146 3 0.260418 0.936913 0.413783
147 4 0.127317 0.98706 0.469374
148 1 0.344724 0.899848 0.477185
149 3 0.414997 0.853493 0.420898
150 4 0.377183 0.883069 0.518606
151 1 0.340975 0.740781 0.422442
152 3 0.368559 0.742393 0.352378
153 4 0.296733 0.68433 0.437339
154 1 0.250723 0.807043 0.32858
155 3 0.327638 0.848327 0.27635
156 4 0.174772 0.833871 0.328549
157 1 0.375844 0.947388 0.31995
158 3 0.480932 0.9326 0.277864
159 4 0.384467 0.998104 0.352499
160 1 0.542046 0.844867 0.326581
161 3 0.587949 0.792445 0.268114
162 4 0.570969 0.816333 0.365731
163 1 0.480236 0.696227 0.270445
164 3 0.423407 0.64627 0.215793
165 4 0.476433 0.63935 0.298846
166 1 0.315426 0.728837 0.207709
167 3 0.287359 0.746184 0.137251
168 5 0.37263 0.660084 0.225571
169 1 0.414408 0.793961 0.113967
170 3 0.36888 0.900038 0.124989
171 5 0.398607 0.711982 0.107508
172 1 0.394912 0.941653 0.0465074
173 3 0.267863 0.928856 0.0439034
174 4 0.415212 0.94317 0.00121113
ITEM: TIMESTEP
1000
ITEM: NUMBER OF ATOMS
174
ITEM: BOX BOUNDS ss ss ss
19.684 38.354
0.091 21.189
-16.503 16.524
ITEM: ATOMS id type xs ys zs
1 1 0.650054 0.548959 0.115382
2 3 0.77534 0.516339 0.119903
3 4 0.613457 0.484062 0.126389
4 1 0.805517 0.556346 0.189966
5 3 0.773092 0.455197 0.214073
6 4 0.801214 0.600577 0.226881
7 1 0.892054 0.401201 0.212402
8 3 0.860764 0.330105 0.265023
9 4 0.97414 0.39226 0.209502
10 1 0.837806 0.407291 0.321991
11 3 0.717459 0.382937 0.343891
12 4 0.86118 0.458277 0.351556
13 1 0.645034 0.408242 0.28352
14 3 0.570484 0.322765 0.270073
15 4 0.622146 0.461831 0.257331
16 1 0.664544 0.238847 0.245618
17 3 0.664499 0.140881 0.281495
18 4 0.709608 0.226977 0.209466
19 1 0.734169 0.173922 0.343349
20 3 0.624642 0.193899 0.376179
21 4 0.795029 0.203054 0.367544
22 1 0.608105 0.0895047 0.41468
23 3 0.656506 0.142888 0.471216
24 4 0.614084 0.0179456 0.423274
25 1 0.540016 0.168825 0.509637
26 3 0.56389 0.0826688 0.551525
27 4 0.454688 0.164259 0.514453
28 1 0.6557 0.130394 0.597399
29 3 0.615339 0.192636 0.653658
30 4 0.733252 0.153831 0.594995
31 1 0.574962 0.109648 0.701533
32 3 0.646342 0.156965 0.754619
33 4 0.528022 0.0541688 0.715071
34 1 0.751443 0.0828421 0.752817
35 3 0.698519 0.0319531 0.810836
36 5 0.714693 0.148191 0.759305
37 1 0.810292 -0.00307527 0.845757
38 3 0.791274 0.00698237 0.916955
39 4 0.890101 -0.0177692 0.848263
40 1 0.720617 0.105787 0.924382
41 3 0.594987 0.104547 0.904162
42 4 0.741348 0.174771 0.925368
43 1 0.540057 0.065302 0.967835
44 3 0.501304 0.152671 1.00883
45 4 0.532424 0.0188393 1.00193
46 1 0.42648 0.212605 0.957797
47 3 0.383315 0.175311 0.893904
48 4 0.468454 0.273905 0.955659
49 1 0.270762 0.243023 0.887078
50 3 0.226359 0.347501 0.889548
51 4 0.205859 0.20879 0.899929
52 1 0.300536 0.403937 0.83674
53 3 0.304995 0.375351 0.765051
54 4 0.373281 0.42707 0.838921
55 1 0.186385 0.418708 0.743688
56 3 0.250796 0.512974 0.723624
57 4 0.10718 0.438546 0.74616
58 1 0.288543 0.478908 0.654859
59 3 0.225293 0.430867 0.600394
60 4 0.368366 0.47442 0.657529
61 1 0.2603 0.499117 0.542055
62 3 0.379794 0.502395 0.516198
63 4 0.235178 0.559529 0.519731
64 1 0.366111 0.419654 0.461376
65 3 0.282198 0.421214 0.408142
66 4 0.396682 0.353901 0.471213
67 1 0.3574 0.416052 0.347042
68 3 0.397498 0.318776 0.319317
69 4 0.406633 0.458965 0.321378
70 1 0.284724 0.262426 0.30742
71 3 0.2553 0.299867 0.240238
72 4 0.211792 0.236985 0.322413
73 1 0.360536 0.259378 0.202138
74 3 0.297043 0.224192 0.143798
75 4 0.444026 0.239926 0.194212
76 1 0.254976 0.11749 0.170427
77 3 0.131762 0.123201 0.144514
78 4 0.256156 0.0503852 0.189401
79 1 0.0849726 0.213388 0.189061
80 3 0.0481528 0.312694 0.167756
81 4 0.0704823 0.212092 0.23468
82 1 0.153292 0.377391 0.164885
83 3 0.0780526 0.462373 0.194911
84 5 0.189199 0.42575 0.138236
85 1 0.0779776 0.434406 0.265809
86 3 0.158366 0.401668 0.322673
87 4 0.00720209 0.400002 0.276658
88 1 0.136211 0.483612 0.370713
89 3 0.0261563 0.449881 0.401465
90 4 0.139033 0.549297 0.387742
91 1 0.0723144 0.366874 0.448439
92 3 0.161951 0.374422 0.499317
93 4 0.0660517 0.298851 0.438709
94 1 0.0914747 0.358736 0.561603
95 3 0.136274 0.25115 0.560888
96 4 0.0327699 0.366238 0.592443
97 1 0.224213 0.251795 0.618533
98 3 0.224629 0.304012 0.686706
99 4 0.28848 0.242364 0.595767
100 1 0.285586 0.223094 0.72624
101 3 0.401354 0.192705 0.719291
102 4 0.258935 0.165627 0.748735
103 1 0.477119 0.28067 0.745229
104 3 0.461484 0.27929 0.81681
105 4 0.496947 0.347698 0.731801
106 1 0.572511 0.215144 0.835738
107 3 0.578491 0.269886 0.898782
108 5 0.532066 0.205225 0.797382
109 1 0.647027 0.365457 0.877026
110 3 0.745827 0.442089 0.865251
111 5 0.677588 0.437793 0.875399
112 1 0.839777 0.362275 0.851696
113 3 0.850198 0.31546 0.786797
114 4 0.890569 0.332047 0.881627
115 1 0.962485 0.359471 0.761091
116 3 0.912731 0.338359 0.691091
117 4 1.00462 0.292847 0.760628
118 1 0.833775 0.431254 0.68849
119 3 0.914817 0.482446 0.64313
120 4 0.786889 0.48935 0.701743
121 1 0.862315 0.44328 0.576063
122 3 0.793865 0.541769 0.576336
123 4 0.858798 0.385766 0.550005
124 1 0.811975 0.574203 0.504644
125 3 0.693158 0.611544 0.495752
126 4 0.859601 0.582373 0.465709
127 1 0.633631 0.515954 0.465892
128 3 0.563932 0.461405 0.514475
129 4 0.632277 0.463491 0.434981
130 1 0.547249 0.544152 0.565441
131 3 0.557709 0.655482 0.578388
132 4 0.59517 0.516272 0.599927
133 1 0.427022 0.68648 0.585212
134 3 0.330811 0.639683 0.625188
135 4 0.401157 0.721713 0.550485
136 1 0.302519 0.734184 0.669067
137 3 0.177925 0.760792 0.670116
138 4 0.326385 0.784515 0.700994
139 1 0.170793 0.817658 0.602374
140 3 0.213739 0.792959 0.533461
141 4 0.167465 0.889295 0.608188
142 1 0.0948559 0.787271 0.497963
143 3 0.14304 0.843558 0.439129
144 4 0.0123131 0.781202 0.488064
145 1 0.142128 0.957067 0.467039
146 3 0.262413 0.986838 0.445842
147 4 0.117021 1.01522 0.489537
148 1 0.335813 0.925955 0.49565
149 3 0.422464 0.86872 0.458125
150 4 0.360704 0.920055 0.539027
151 1 0.339019 0.782525 0.430845
152 3 0.353224 0.782237 0.358457
153 4 0.292834 0.721585 0.441072
154 1 0.250481 0.85837 0.341707
155 3 0.304047 0.930841 0.296104
156 4 0.17069 0.882584 0.341654
157 1 0.379767 0.994052 0.343938
158 3 0.493336 0.985576 0.311544
159 4 0.377356 1.04229 0.377397
160 1 0.545998 0.894787 0.348412
161 3 0.593193 0.827268 0.298163
162 4 0.572038 0.868279 0.387819
163 1 0.488332 0.760412 0.281877
164 3 0.365882 0.733935 0.264768
165 4 0.491665 0.700068 0.308426
166 1 0.334072 0.825101 0.223459
167 3 0.320338 0.814985 0.150051
168 5 0.30628 0.825872 0.180534
169 1 0.424459 0.876605 0.128476
170 3 0.365692 0.976618 0.131008
171 5 0.499141 0.8923 0.148574
172 1 0.423377 1.03297 0.0726981
173 3 0.374716 1.01912 0.00440788
174 4 0.425785 1.0324 0.0262076
ITEM: TIMESTEP
2000
ITEM: NUMBER OF ATOMS
174
ITEM: BOX BOUNDS ss ss ss
19.7362 38.5268
-0.490251 22.2286
-16.7748 17.0045
ITEM: ATOMS id type xs ys zs
1 1 0.645651 0.559002 0.124045
2 3 0.767995 0.530759 0.122984
3 4 0.603389 0.507207 0.140912
4 1 0.80682 0.552636 0.193245
5 3 0.776058 0.457737 0.210764
6 4 0.815105 0.587673 0.230843
7 1 0.89649 0.4083 0.214172
8 3 0.864402 0.33994 0.264167
9 4 0.978435 0.408695 0.215253
10 1 0.825818 0.412674 0.318393
11 3 0.712677 0.367507 0.334728
12 4 0.832483 0.461799 0.348467
13 1 0.627771 0.421027 0.28864
14 3 0.564285 0.332614 0.272306
15 4 0.607011 0.465445 0.259377
16 1 0.659574 0.264503 0.249024
17 3 0.668971 0.171716 0.281298
18 4 0.707245 0.260524 0.211861
19 1 0.726706 0.198378 0.344428
20 3 0.616803 0.214111 0.37904
21 4 0.785769 0.230382 0.367562
22 1 0.595541 0.11391 0.409316
23 3 0.645542 0.164156 0.466143
24 4 0.604105 0.0504756 0.419169
25 1 0.532409 0.183446 0.503469
26 3 0.564336 0.105098 0.548942
27 4 0.454291 0.1919 0.511165
28 1 0.650491 0.160987 0.591938
29 3 0.59934 0.221652 0.645519
30 4 0.722561 0.18816 0.590499
31 1 0.572334 0.138132 0.693015
32 3 0.641933 0.181276 0.743671
33 4 0.523361 0.091185 0.707269
34 1 0.74862 0.122353 0.744531
35 3 0.693785 0.0546676 0.789534
36 5 0.784737 0.102862 0.783059
37 1 0.795111 0.0232312 0.830496
38 3 0.741573 0.0113726 0.895395
39 4 0.874307 0.0134845 0.837826
40 1 0.711513 0.117995 0.907121
41 3 0.59692 0.101089 0.886502
42 4 0.716857 0.183115 0.915347
43 1 0.532425 0.0885857 0.952127
44 3 0.476037 0.162018 0.994222
45 4 0.531599 0.0470235 0.988595
46 1 0.405646 0.214159 0.942197
47 3 0.36476 0.179646 0.878012
48 4 0.44514 0.274086 0.937327
49 1 0.249719 0.237538 0.875097
50 3 0.198651 0.334258 0.872162
51 4 0.183172 0.203897 0.885488
52 1 0.279998 0.387545 0.826205
53 3 0.280897 0.362975 0.757849
54 4 0.350657 0.419191 0.832353
55 1 0.168397 0.410838 0.734807
56 3 0.220708 0.501328 0.714982
57 4 0.0928402 0.428712 0.740703
58 1 0.272734 0.481676 0.64991
59 3 0.217025 0.428918 0.596358
60 4 0.350836 0.473102 0.654927
61 1 0.245225 0.491954 0.537616
62 3 0.363379 0.509029 0.51182
63 4 0.208528 0.549116 0.525901
64 1 0.358284 0.420288 0.462005
65 3 0.272036 0.392789 0.410057
66 4 0.391321 0.364045 0.472317
67 1 0.340721 0.429901 0.351585
68 3 0.392025 0.337021 0.3251
69 4 0.394534 0.470653 0.327928
70 1 0.275798 0.288137 0.307939
71 3 0.241277 0.316214 0.243256
72 4 0.200578 0.271868 0.319928
73 1 0.352934 0.29086 0.20462
74 3 0.326676 0.236437 0.145548
75 4 0.431509 0.28917 0.196586
76 1 0.248852 0.157127 0.172936
77 3 0.139918 0.177162 0.140899
78 4 0.257308 0.0979033 0.189757
79 1 0.0728784 0.230425 0.194469
80 3 0.0375747 0.316223 0.154479
81 4 0.047881 0.234911 0.237154
82 1 0.145317 0.380574 0.175589
83 3 0.0767441 0.467718 0.198685
84 5 0.106045 0.444938 0.176404
85 1 0.0672748 0.435917 0.270791
86 3 0.146994 0.407197 0.321493
87 4 -0.00603319 0.411097 0.283141
88 1 0.125308 0.486678 0.370188
89 3 0.0244154 0.466323 0.414979
90 4 0.135694 0.550293 0.384445
91 1 0.0701613 0.377455 0.450052
92 3 0.159115 0.386806 0.501219
93 4 0.0601922 0.318889 0.431699
94 1 0.0837702 0.356548 0.559904
95 3 0.112117 0.250922 0.561554
96 4 0.0237094 0.365856 0.590216
97 1 0.211759 0.256033 0.611077
98 3 0.208053 0.301708 0.675971
99 4 0.282086 0.247946 0.588861
100 1 0.276812 0.228192 0.716587
101 3 0.401327 0.210531 0.700473
102 4 0.253389 0.171526 0.73702
103 1 0.460076 0.291985 0.743755
104 3 0.451674 0.281396 0.815216
105 4 0.471013 0.354713 0.731457
106 1 0.555861 0.217025 0.826574
107 3 0.576398 0.27146 0.884924
108 5 0.554919 0.225454 0.872187
109 1 0.638092 0.359454 0.867143
110 3 0.748826 0.411614 0.870808
111 5 0.71411 0.385642 0.870932
112 1 0.832838 0.347011 0.839831
113 3 0.848887 0.291364 0.780518
114 4 0.878237 0.317938 0.87204
115 1 0.948032 0.35448 0.750802
116 3 0.889625 0.327455 0.685583
117 4 0.991895 0.29395 0.756086
118 1 0.821816 0.422708 0.67728
119 3 0.903262 0.457069 0.628926
120 4 0.78246 0.483238 0.691477
121 1 0.851375 0.413193 0.568301
122 3 0.763649 0.491957 0.561444
123 4 0.834525 0.358531 0.544991
124 1 0.806035 0.545698 0.50195
125 3 0.68576 0.581195 0.492931
126 4 0.851395 0.559185 0.463814
127 1 0.626738 0.493993 0.464262
128 3 0.543551 0.446875 0.508069
129 4 0.62108 0.442107 0.435796
130 1 0.538826 0.520778 0.561656
131 3 0.564039 0.628152 0.569188
132 4 0.593122 0.497487 0.592973
133 1 0.437576 0.662648 0.57764
134 3 0.335182 0.632665 0.617328
135 4 0.398917 0.687365 0.542454
136 1 0.324133 0.722747 0.66159
137 3 0.19636 0.738058 0.659042
138 4 0.349756 0.769454 0.69144
139 1 0.18598 0.791201 0.593735
140 3 0.225216 0.769315 0.528846
141 4 0.174543 0.859167 0.598991
142 1 0.105851 0.767581 0.495253
143 3 0.147585 0.818326 0.436543
144 4 0.0236013 0.760412 0.489775
145 1 0.156514 0.918782 0.463441
146 3 0.274871 0.939986 0.438794
147 4 0.134675 0.972003 0.485224
148 1 0.348328 0.88066 0.485751
149 3 0.418547 0.819418 0.442976
150 4 0.37804 0.873277 0.526753
151 1 0.337543 0.739152 0.425895
152 3 0.342913 0.73913 0.35323
153 4 0.291145 0.687609 0.43376
154 1 0.251827 0.816348 0.340132
155 3 0.309647 0.881764 0.290722
156 4 0.177189 0.84516 0.342052
157 1 0.387639 0.941042 0.334136
158 3 0.506291 0.929103 0.306099
159 4 0.391797 0.98554 0.368613
160 1 0.551765 0.842613 0.340752
161 3 0.585121 0.777062 0.288145
162 4 0.575639 0.813435 0.378385
163 1 0.476481 0.719385 0.277914
164 3 0.365275 0.686123 0.251086
165 4 0.470566 0.664889 0.302826
166 1 0.317767 0.777391 0.221581
167 3 0.302227 0.768948 0.148611
168 5 0.333188 0.814648 0.184251
169 1 0.42828 0.809211 0.133192
170 3 0.403349 0.913742 0.13826
171 5 0.43427 0.743879 0.120523
172 1 0.421759 0.9405 0.0666835
173 3 0.454442 0.977467 0.00332787
174 4 0.439847 0.936694 0.0226069
