LAMMPS protain data file

         372  atoms
         494  bonds
           0  angles
           0  dihedrals
           0  impropers

           5  atom types
           5  bond types
           0  angle types
           0  dihedral types
           0  improper types

-200.0	200.0	xlo xhi
-200.0	200.0	ylo yhi
-200.0	200.0	zlo zhi

Masses

           1	27.0
           2	14.0
           3	28.0
           4	60.0
           5	60.0

Atoms

           1	1	1	1	0.0	22.36499977	-0.95499998	21.21199989
           2	1	1	3	0.0	24.38599968	-0.16500001	22.25
           3	1	1	4	0.0	21.45800018	-1.47399998	22.33099937
           4	1	2	1	0.0	23.62299919	2.51300001	22.17700005
           5	1	2	3	0.0	22.50600052	2.34899998	24.29000092
           6	1	2	4	0.0	23.02000046	3.80200005	21.60899925
           7	1	3	1	0.0	24.68600082	2.898	25.82799911
           8	1	3	3	0.0	23.89699936	5.11199999	25.37199974
           9	1	3	4	0.0	26.10000038	2.95799994	26.43899918
          10	1	4	1	0.0	22.76799965	5.4749999	27.87800026
          11	1	4	3	0.0	23.31299973	7.76499987	27.41799927
          12	1	4	4	0.0	22.25200081	5.27400017	29.30800056
          13	1	5	1	0.0	25.93899918	7.54099989	28.25300026
          14	1	5	3	0.0	26.34000015	9.24600029	26.61000061
          15	1	5	4	0.0	27.23500061	7.05999994	28.92300034
          16	1	6	1	0.0	26.63500023	7.46199989	24.50799942
          17	1	6	3	0.0	25.62599945	9.11800003	23.10000038
          18	1	6	4	0.0	26.96800041	6.21500015	23.70000076
          19	1	7	1	0.0	23.04400063	8.42300034	23.7310009
          20	1	7	3	0.0	22.52799988	10.76299953	23.54000092
          21	1	7	4	0.0	21.79400063	7.6329999	24.11700058
          22	1	8	1	0.0	23.26799965	11.39599991	26.09399986
          23	1	8	3	0.0	23.93400002	13.45300007	25.06100082
          24	1	8	4	0.0	23.62400055	11.38799953	27.58799934
          25	1	9	1	0.0	26.43700027	12.54100037	24.3220005
          26	1	9	3	0.0	25.99300003	14.14500046	22.5739994
          27	1	9	4	0.0	27.72400093	11.71800041	24.17200089
          28	1	10	1	0.0	24.90099907	12.26799965	20.85099983
          29	1	10	3	0.0	23.63800049	14.12800026	19.97599983
          30	1	10	4	0.0	24.46800041	10.95400047	20.1989994
          31	1	11	1	0.0	21.6439991	13.97399998	21.87400055
          32	1	11	3	0.0	21.19300079	16.30400085	22.1060009
          33	1	11	4	0.0	20.52000046	13.27600002	22.65099907
          34	1	12	1	0.0	22.93099976	16.74799919	24.11400032
          35	1	12	3	0.0	24.37700081	18.53899956	24.7159996
          36	1	12	4	0.0	22.4470005	16.56999969	25.55500031
          37	1	13	1	0.0	26.58300018	17.55500031	23.51300049
          38	1	13	3	0.0	26.91600037	17.62000084	21.14699936
          39	1	13	4	0.0	27.68199921	16.54400063	23.87000084
          40	1	14	1	0.0	27.76000023	20.26399994	21.10300064
          41	1	14	3	0.0	28.6079998	22.45499992	21.55800056
          42	1	14	4	0.0	26.61599922	21.02000046	20.41600037
          43	1	15	1	0.0	31.13899994	21.52799988	22.25900078
          44	1	15	3	0.0	32.44400024	23.35899925	21.43499947
          45	1	15	4	0.0	32.18700027	20.63400078	22.92700005
          46	1	16	1	0.0	32.3409996	22.5510006	18.79000092
          47	1	16	3	0.0	32.49700165	24.70400047	17.76000023
          48	1	16	4	0.0	32.16699982	21.70599937	17.52700043
          49	1	17	1	0.0	30.26099968	25.71899986	18.97900009
          50	1	17	3	0.0	29.77799988	25.69599915	21.33099937
          51	1	17	4	0.0	28.90699959	25.70700073	18.24300003
          52	1	18	1	0.0	30.17300034	28.38100052	21.68799973
          53	1	18	3	0.0	28.31200027	28.97900009	23.08099937
          54	1	18	4	0.0	31.03899956	29.64699936	21.69000053
          55	1	19	1	0.0	26.52499962	29.16900063	21.00699997
          56	1	19	3	0.0	26.36800003	29.20400047	18.61800003
          57	1	19	4	0.0	26.39999962	30.62199974	21.46299934
          58	1	20	1	0.0	23.68099976	28.3239994	18.62100029
          59	1	20	3	0.0	24.18400002	30.41900063	17.56399918
          60	1	20	4	0.0	22.22400093	28.6060009	18.97299957
          61	1	21	1	0.0	24.81399918	29.24900055	15.1239996
          62	1	21	3	0.0	23.50399971	28.61100006	13.22000027
          63	1	21	4	0.0	25.97200012	28.48999977	14.47599983
          64	1	22	1	0.0	21.8390007	30.9109993	13.39799976
          65	1	22	3	0.0	20.45199966	29.37299919	14.6260004
          66	1	22	4	0.0	22.1609993	30.54999924	11.94099998
          67	1	23	1	0.0	18.09799957	30.26499939	13.46199989
          68	1	23	3	0.0	16.90500069	28.22999954	13.06900024
          69	1	23	4	0.0	17.04100037	31.2329998	12.94400024
          70	1	24	1	0.0	18.74500084	27.18499947	11.31900024
          71	1	24	3	0.0	19.62299919	24.97999954	11.63399982
          72	1	24	4	0.0	19.2159996	27.2859993	9.86900043
          73	1	25	1	0.0	21.08200073	25.67499924	13.92199993
          74	1	25	3	0.0	20.89900017	23.28899956	14.10999966
          75	1	25	4	0.0	21.57799911	26.39800072	15.18799973
          76	1	26	1	0.0	18.43400002	23.31900024	15.31200027
          77	1	26	3	0.0	18.09199905	21.18300056	14.30099964
          78	1	26	4	0.0	17.21199989	23.72400093	16.12800026
          79	1	27	1	0.0	17.21299934	22.14800072	11.9090004
          80	1	27	3	0.0	18.29500008	20.1439991	11.1619997
          81	1	27	4	0.0	16.75099945	23.0170002	10.74300003
          82	1	28	1	0.0	20.83200073	21.29599953	11.07600021
          83	1	28	3	0.0	21.57799911	19.11100006	11.7329998
          84	1	28	4	0.0	21.94300079	22.33699989	10.89599991
          85	1	29	1	0.0	21.76300049	19.74500084	14.42599964
          86	1	29	3	0.0	21.31900024	17.45000076	14.93799973
          87	1	29	4	0.0	21.97299957	20.54400063	15.71800041
          88	1	30	1	0.0	18.59600067	17.69300079	14.94299984
          89	1	30	3	0.0	18.5510006	15.41699982	14.15799999
          90	1	30	4	0.0	17.1609993	18.22200012	14.99400043
          91	1	31	1	0.0	19.10899925	16.09199905	11.5340004
          92	1	31	3	0.0	20.45000076	14.10900021	11.46899986
          93	1	31	4	0.0	19.01499939	16.8390007	10.20100021
          94	1	32	1	0.0	22.84199905	15.44400024	11.82699966
          95	1	32	3	0.0	23.94499969	13.67300034	13.01299953
          96	1	32	4	0.0	23.92399979	16.52000046	11.72000027
          97	1	33	1	0.0	22.54199982	13.98099995	15.32499981
          98	1	33	3	0.0	21.375	12.07699966	16.23900032
          99	1	33	4	0.0	22.35400009	14.82299995	16.58799934
         100	1	34	1	0.0	19.9260006	11.64799976	13.85700035
         101	1	34	3	0.0	18.31800079	10.55500031	15.25500011
         102	1	34	4	0.0	20.64100075	10.29500008	13.83600044
         103	1	35	1	0.0	17.02700043	12.92500019	15.9460001
         104	1	35	3	0.0	14.70499992	13.5340004	15.73900032
         105	1	35	4	0.0	17.27599907	14.05500031	16.95299911
         106	1	36	1	0.0	14.64799976	13.21000004	12.9659996
         107	1	36	3	0.0	13.80200005	12.16399956	10.96800041
         108	1	36	4	0.0	14.78299999	14.5170002	12.1590004
         109	1	37	1	0.0	15.18900013	9.78899956	11.3739996
         110	1	37	3	0.0	13.40600014	9.09500027	9.92500019
         111	1	37	4	0.0	16.14100075	8.72099972	11.92000008
         112	1	38	1	0.0	11.81299973	8.11200047	11.93000031
         113	1	38	3	0.0	9.50199986	8.6789999	12.25199986
         114	1	38	4	0.0	11.77499962	6.7420001	12.60400009
         115	1	39	1	0.0	10.07699966	10.95699978	13.73600006
         116	1	39	3	0.0	12.04199982	12.07900047	14.50899982
         117	1	39	4	0.0	9.36600018	10.29399967	14.92000008
         118	1	40	1	0.0	10.84700012	14.53600025	14.72599983
         119	1	40	3	0.0	9.78299999	14.54300022	16.87100029
         120	1	40	4	0.0	10.11200047	15.79500008	14.24400043
         121	1	41	1	0.0	12.09500027	14.56400013	18.31500053
         122	1	41	3	0.0	11.95699978	16.94799995	18.07900047
         123	1	41	4	0.0	13.54199982	14.50699997	18.80699921
         124	1	42	1	0.0	9.77900028	17.27899933	19.71299934
         125	1	42	3	0.0	10.54599953	19.52599907	20.06299973
         126	1	42	4	0.0	8.54500008	16.89599991	20.53300095
         127	1	43	1	0.0	12.26000023	18.8560009	22.14599991
         128	1	43	3	0.0	13.74400043	17.09199905	22.79700089
         129	1	43	4	0.0	11.61400032	19.20999908	23.50200081
         130	1	44	1	0.0	16.02700043	18.625	22.58499908
         131	1	44	3	0.0	17.01399994	20.77199936	22.12299919
         132	1	44	4	0.0	16.56100082	17.81500053	21.40500069
         133	1	45	1	0.0	18.69300079	20.68799973	24.3239994
         134	1	45	3	0.0	20.50099945	19.12000084	24.39299965
         135	1	45	4	0.0	18.57799911	21.01000023	25.8239994
         136	1	46	1	0.0	22.32299995	20.90299988	23.2159996
         137	1	46	3	0.0	22.75600052	22.96800041	24.36000061
         138	1	46	4	0.0	22.64999962	21.23399925	21.75900078
         139	1	47	1	0.0	25.04800034	22.02499962	25.63800049
         140	1	47	3	0.0	27.07600021	21.51300049	24.45899963
         141	1	47	4	0.0	25.33099937	21.20899963	26.92300034
         142	1	48	1	0.0	27.91900063	24.15999985	24.375
         143	1	48	3	0.0	29.44300079	25.48900032	25.6590004
         144	1	48	4	0.0	27.64299965	25.4659996	23.63699913
         145	1	49	1	0.0	30.57600021	23.25200081	26.89599991
         146	1	49	3	0.0	30.81800079	21.08399963	25.91600037
         147	1	49	4	0.0	30.04500008	23.28000069	28.33699989
         148	1	50	1	0.0	33.29499817	20.61899948	26.99300003
         149	1	50	3	0.0	31.80999947	19.56800079	28.56200027
         150	1	50	4	0.0	34.66999817	20.77700043	27.63999939
         151	1	51	1	0.0	32.25	17.03100014	27.60099983
         152	1	51	3	0.0	31.86499977	16.56100082	29.93700027
         153	1	51	4	0.0	32.73799896	15.81200027	26.81200027
         154	1	52	1	0.0	34.43500137	17.15200043	30.73200035
         155	1	52	3	0.0	33.30599976	17.64500046	32.80400085
         156	1	52	4	0.0	35.90100098	17.54199982	30.77099991
         157	1	53	1	0.0	32.51499939	20.17700005	32.06399918
         158	1	53	3	0.0	30.60400009	19.7840004	33.46699905
         159	1	53	4	0.0	32.39699936	21.54000092	31.375
         160	1	54	1	0.0	29.1590004	18.4489994	31.54899979
         161	1	54	3	0.0	28.38100052	17.02300072	33.32099915
         162	1	54	4	0.0	28.49799919	18.12899971	30.17099953
         163	1	55	1	0.0	30.3390007	15.15600014	33.04999924
         164	1	55	3	0.0	30.11400032	14.8579998	35.42300034
         165	1	55	4	0.0	31.50600052	14.2869997	32.57400131
         166	1	56	1	0.0	31.59399986	17.12199974	36.06600189
         167	1	56	3	0.0	30.36499977	17.47800064	38.09400177
         168	1	56	4	0.0	32.50999832	18.3390007	35.99000168
         169	1	57	1	0.0	28.00699997	18.09499931	36.85200119
         170	1	57	3	0.0	26.81200027	17.21500015	38.75600052
         171	1	57	4	0.0	26.91900063	18.50600052	35.82600021
         172	1	58	1	0.0	27.44000053	14.57499981	38.24499893
         173	1	58	3	0.0	27.6989994	13.73799992	40.4679985
         174	1	58	4	0.0	27.82600021	13.26799965	37.56000137
         175	1	59	1	0.0	29.5890007	15.65299988	41.21300125
         176	1	59	3	0.0	29.81900024	17.36899948	42.86500168
         177	1	59	4	0.0	31.11000061	15.58899975	41.06100082
         178	1	60	1	0.0	27.88899994	18.99300003	41.76499939
         179	1	60	3	0.0	26.46999931	18.05200005	43.44100189
         180	1	60	4	0.0	27.83099937	19.98200035	40.5890007
         181	1	61	1	0.0	24.49799919	19.9279995	43.28699875
         182	1	61	3	0.0	22.76499939	18.82299995	42.05699921
         183	1	61	4	0.0	23.82099915	21.3010006	43.18600082
         184	1	62	1	0.0	22.3390007	16.85000038	43.93899918
         185	1	62	3	0.0	20.65800095	18.00799942	45.23199844
         186	1	62	4	0.0	22.65200043	15.76099968	44.97000122
         187	1	63	1	0.0	18.6760006	17.69599915	43.30400085
         188	1	63	3	0.0	18.12800026	15.68799973	42.11700058
         189	1	63	4	0.0	18.47299957	18.98800087	42.48300171
         190	1	64	1	0.0	15.45699978	15.81099987	42.60900116
         191	1	64	3	0.0	15.33500004	17.06299973	40.54800034
         192	1	64	4	0.0	14.1420002	15.96899986	43.3730011
         193	1	65	1	0.0	14.57299995	14.86299992	39.03699875
         194	1	65	3	0.0	12.34000015	15.01299953	39.89500046
         195	1	65	4	0.0	14.85999966	13.4989996	38.40200043
         196	1	66	1	0.0	11.2489996	15.93400002	37.51499939
         197	1	66	3	0.0	9.23400021	14.84899998	38.2179985
         198	1	66	4	0.0	11.02600002	16.38999939	36.07300186
         199	1	67	1	0.0	10.20499992	12.29399967	37.77899933
         200	1	67	3	0.0	9.69299984	10.76799965	39.5530014
         201	1	67	4	0.0	10.7130003	11.19900036	36.82899857
         202	1	68	1	0.0	11.02999973	12.15999985	41.47200012
         203	1	68	3	0.0	12.51799965	11.10299969	43.00899887
         204	1	68	5	0.0	10.9460001	11.49050149	39.92642884
         205	1	69	1	0.0	14.3380003	10.32699966	41.07099915
         206	1	69	3	0.0	15.1420002	12.48499966	41.75999832
         207	1	69	4	0.0	14.96899986	9.89999962	39.74300003
         208	1	70	1	0.0	17.21500015	11.52600002	43.24900055
         209	1	70	3	0.0	19.59399986	11.81799984	43.44300079
         210	1	70	4	0.0	17.1989994	11.14099979	44.75099945
         211	1	71	1	0.0	20.14699936	10.97999954	40.875
         212	1	71	3	0.0	21.12999916	11.95600033	38.91500092
         213	1	71	4	0.0	20.35400009	9.6260004	40.17599869
         214	1	72	1	0.0	19.93199921	14.43599987	39.28499985
         215	1	72	3	0.0	20.95000076	15.53100014	41.16400146
         216	1	72	4	0.0	18.58600044	15.10499954	39.00500107
         217	1	73	1	0.0	22.5510006	17.16300011	39.54299927
         218	1	73	3	0.0	22.26399994	18.38400078	37.50699997
         219	1	73	4	0.0	23.97200012	16.60700035	39.39599991
         220	1	74	1	0.0	22.38400078	20.88199997	38.80500031
         221	1	74	3	0.0	24.4640007	21.55999947	39.79000092
         222	1	74	4	0.0	21.42000008	21.76199913	39.61399841
         223	1	75	1	0.0	25.49200058	22.6079998	37.4620018
         224	1	75	3	0.0	24.63199997	24.62800026	38.41400146
         225	1	75	4	0.0	25.76099968	22.96899986	35.99700165
         226	1	76	1	0.0	26.94300079	25.20299911	39.84899902
         227	1	76	3	0.0	26.51499939	27.53800011	39.43700027
         228	1	76	4	0.0	28.29599953	25.11199951	40.56800079
         229	1	77	1	0.0	27.51600075	27.53100014	36.9090004
         230	1	77	3	0.0	26.04299927	26.3220005	35.44599915
         231	1	77	4	0.0	28.93700027	27.73600006	36.37099838
         232	1	78	1	0.0	25.40099907	28.49799919	33.93999863
         233	1	78	3	0.0	27.50399971	28.16900063	32.82899857
         234	1	78	4	0.0	24.83200073	29.88899994	33.60200119
         235	1	79	1	0.0	26.36100006	26.96699905	30.60400009
         236	1	79	3	0.0	24.42700005	27.71299934	29.41200066
         237	1	79	4	0.0	26.38400078	25.43899918	30.59499931
         238	1	80	1	0.0	25.75300026	27.98500061	27.02099991
         239	1	80	3	0.0	25.51099968	25.68400002	26.36199951
         240	1	80	4	0.0	26.82099915	28.41399956	26.01600075
         241	1	81	1	0.0	22.87400055	25.90399933	25.67000008
         242	1	81	3	0.0	21.73999977	27.59900093	24.4109993
         243	1	81	4	0.0	22.01199913	25.27000046	26.79000092
         244	1	82	1	0.0	20.44300079	25.7840004	22.79199982
         245	1	82	3	0.0	19.49699974	23.58200073	22.87100029
         246	1	82	4	0.0	21.05900002	25.67300034	21.37899971
         247	1	83	1	0.0	16.92099953	24.45299911	23.09300041
         248	1	83	3	0.0	16.27899933	25.44599915	21.00600052
         249	1	83	4	0.0	15.84399986	24.9659996	24.04400063
         250	1	84	1	0.0	15.44200039	22.99399948	19.9279995
         251	1	84	3	0.0	13.88099957	21.41500092	20.80200005
         252	1	84	4	0.0	16.29000092	21.97200012	19.16799927
         253	1	85	1	0.0	11.66600037	22.6779995	19.72200012
         254	1	85	3	0.0	11.11999989	23.71899986	17.625
         255	1	85	4	0.0	10.91800022	23.53499985	20.74699974
         256	1	86	1	0.0	9.38899994	21.67399979	16.86700058
         257	1	86	3	0.0	7.80900002	23.2310009	17.77099991
         258	1	86	4	0.0	8.56400013	20.39500046	16.84799957
         259	1	87	1	0.0	7.46999979	24.60899925	15.40999985
         260	1	87	3	0.0	6.125	22.98699951	14.27900028
         261	1	87	4	0.0	8.05500031	25.60700035	14.3920002
         262	1	88	1	0.0	3.773	24.35199928	14.61299992
         263	1	88	3	0.0	2.97900009	23.29500008	12.61299992
         264	1	88	5	0.0	5.06899977	22.57037002	14.15150508
         265	1	89	1	0.0	4.97100019	24.41500092	11.01599979
         266	1	89	3	0.0	6.5619998	23.20599937	9.66899967
         267	1	89	4	0.0	5.51999998	25.70400047	10.39900017
         268	1	90	1	0.0	6.81099987	21.10000038	11.47799969
         269	1	90	3	0.0	4.94999981	19.64299965	11.87199974
         270	1	90	4	0.0	7.67000008	20.88800049	12.72500038
         271	1	91	1	0.0	5.71099997	17.78100014	9.99199963
         272	1	91	3	0.0	7.12099981	17.00099945	8.21500015
         273	1	91	4	0.0	4.52400017	18.10199928	9.07699966
         274	1	92	1	0.0	7.71600008	14.58600044	9.4659996
         275	1	92	3	0.0	6.02299976	14.05700016	7.84299994
         276	1	92	4	0.0	7.70699978	13.38599968	10.42199993
         277	1	93	1	0.0	9.61299992	13.93700027	7.3039999
         278	1	93	3	0.0	11.42800045	15.47299957	6.98999977
         279	1	93	4	0.0	10.1079998	12.98999977	6.22300005
         280	1	94	1	0.0	9.85299969	17.72500038	7.07200003
         281	1	94	3	0.0	9.03199959	19.31800079	8.68099976
         282	1	94	4	0.0	8.97700024	18.48500061	6.079
         283	1	95	1	0.0	10.86800003	18.58200073	10.63500023
         284	1	95	3	0.0	12.22599983	20.36499977	9.77600002
         285	1	95	4	0.0	11.81999969	17.74699974	11.48999977
         286	1	96	1	0.0	11.16800022	22.26799965	11.52000046
         287	1	96	3	0.0	10.49400043	22.2310009	13.81099987
         288	1	96	4	0.0	10.07900047	23.13999939	10.90100002
         289	1	97	1	0.0	12.68299961	23.62100029	14.72900009
         290	1	97	3	0.0	13.60499954	25.76399994	14.16499996
         291	1	97	4	0.0	13.86699963	22.81200027	15.25899982
         292	1	98	1	0.0	12.83600044	26.88899994	16.61499977
         293	1	98	3	0.0	14.24300003	25.85300064	18.27799988
         294	1	98	4	0.0	11.69499969	27.39599991	17.49699974
         295	1	99	1	0.0	16.3409996	27.67399979	17.91699982
         296	1	99	3	0.0	16.17200089	29.92099953	18.7310009
         297	1	99	4	0.0	17.5	27.98500061	16.93899918
         298	1	100	1	0.0	16.61100006	29.28499985	21.36000061
         299	1	100	3	0.0	18.02799988	28.15999985	22.95400047
         300	1	100	4	0.0	15.39299965	29.18499947	22.31100082
         301	1	101	1	0.0	20.09000015	30.05400085	22.68600082
         302	1	101	3	0.0	19.19799995	31.69499969	24.18499947
         303	1	101	4	0.0	21.11400032	30.83499908	21.8579998
         304	1	102	1	0.0	20.48800087	30.73200035	26.39800072
         305	1	102	3	0.0	22.47400093	29.45000076	26.80500031
         306	1	102	4	0.0	19.19099998	30.2859993	27.0739994
         307	1	103	1	0.0	22.89500046	30.58600044	29.31100082
         308	1	103	3	0.0	21.81399918	31.15200043	31.36000061
         309	1	103	4	0.0	23.85499954	31.76300049	29.44799995
         310	1	104	1	0.0	21.57600021	28.55999947	32.20100021
         311	1	104	3	0.0	23.10300064	26.71800041	32.20700073
         312	1	104	4	0.0	20.09600067	28.23800087	31.99399948
         313	1	105	1	0.0	22.29700089	25.87899971	34.74900055
         314	1	105	3	0.0	20.44000053	24.73999977	33.73500061
         315	1	105	4	0.0	21.90299988	25.95299911	36.22900009
         316	1	106	1	0.0	21.71199989	22.37999916	33.44300079
         317	1	106	3	0.0	22.20599937	21.40200043	35.57500076
         318	1	106	4	0.0	22.58200073	21.72999954	32.32500076
         319	1	107	1	0.0	20.20400047	19.50499916	35.37599945
         320	1	107	3	0.0	19.39999962	18.03199959	33.68299866
         321	1	107	4	0.0	18.83799934	19.72999954	36.04199982
         322	1	108	1	0.0	21.1060009	15.95800018	34.36700058
         323	1	108	3	0.0	21.32099915	14.98400021	36.54899979
         324	1	108	4	0.0	22.44199944	15.79300022	33.5870018
         325	1	109	1	0.0	20.4829998	12.46399975	35.70800018
         326	1	109	3	0.0	22.23200035	11.64299965	34.2879982
         327	1	109	4	0.0	19.27899933	11.62100029	35.29899979
         328	1	110	1	0.0	23.64100075	10.43900013	36.31299973
         329	1	110	3	0.0	22.75799942	8.69499969	37.70100021
         330	1	110	4	0.0	24.76799965	11.1590004	37.05699921
         331	1	111	1	0.0	24.34300041	6.7420001	36.6269989
         332	1	111	3	0.0	26.1970005	6.45499992	35.13999939
         333	1	111	4	0.0	23.02099991	6.09600019	36.18799973
         334	1	112	1	0.0	26.87000084	3.97199988	36.18299866
         335	1	112	3	0.0	28.38100052	4.99100018	37.75299835
         336	1	112	5	0.0	25.78700066	2.77911214	33.0493165
         337	1	113	1	0.0	30.57099915	3.54500008	36.77899933
         338	1	113	3	0.0	31.48399925	2.37100005	34.90100098
         339	1	113	4	0.0	30.89800072	2.38700008	37.72299957
         340	1	114	1	0.0	31.93600082	5.89099979	35.68700027
         341	1	114	3	0.0	29.66500092	6.24499989	34.96300125
         342	1	114	4	0.0	32.86399841	6.73899984	34.82099915
         343	1	115	1	0.0	29.08699989	8.01299953	37.10100174
         344	1	115	3	0.0	29.55800056	10.26500034	36.41400146
         345	1	115	4	0.0	29.09199905	8.50699997	38.54499817
         346	1	116	1	0.0	28.1420002	10.05900002	34.03499985
         347	1	116	3	0.0	25.78000069	9.66699982	34.01900101
         348	1	116	4	0.0	28.89299965	9.62800026	32.75400162
         349	1	117	1	0.0	25.12100029	11.88700008	32.5719986
         350	1	117	3	0.0	25.08399963	10.42700005	30.65099907
         351	1	117	4	0.0	25.28800011	13.27299976	31.94199944
         352	1	118	1	0.0	22.44499969	9.63599968	31.0510006
         353	1	118	3	0.0	20.38199997	9.6590004	29.82500076
         354	1	118	4	0.0	22.1779995	8.2670002	31.76199913
         355	1	119	1	0.0	19.50900078	12.04800034	30.83699989
         356	1	119	3	0.0	20.20400047	13.97799969	32.08100128
         357	1	119	4	0.0	18.38199997	11.37300014	31.63899994
         358	1	120	1	0.0	18.92000008	15.77299976	30.40999985
         359	1	120	3	0.0	16.52499962	15.84899998	30.29500008
         360	1	120	4	0.0	19.08200073	16.49099922	29.0720005
         361	1	121	1	0.0	16.2329998	16.73200035	32.90499878
         362	1	121	3	0.0	14.45499992	18.22599983	32.30400085
         363	1	121	4	0.0	16.42000008	16.56200027	34.41600037
         364	1	122	1	0.0	15.98999977	20.49799919	32.48500061
         365	1	122	3	0.0	18.27599907	21.13500023	32.80400085
         366	1	122	4	0.0	14.89999962	20.85000038	33.51699829
         367	1	123	1	0.0	17.76600075	23.84199905	32.52099991
         368	1	123	3	0.0	15.9119997	25.10899925	33.34600067
         369	1	123	4	0.0	18.13299942	24.38500023	31.13699913
         370	1	124	1	0.0	17.4810009	26.77400017	34.91699982
         371	1	124	3	0.0	19.53100014	27.93600082	35.17699814
         372	1	124	4	0.0	17.49500084	26.43000031	36.42399979

Bond Coeffs

           1	200.0	3.77
           2	200.0	2.41
           3	200.0	2.50
           4	200.0	1.54
           5	200.0	1.54
Bonds

           1	2	1	2
           2	4	1	3
           3	1	1	4
           4	3	2	4
           5	2	4	5
           6	4	4	6
           7	1	4	7
           8	3	5	7
           9	2	7	8
          10	4	7	9
          11	1	7	10
          12	3	8	10
          13	2	10	11
          14	4	10	12
          15	1	10	13
          16	3	11	13
          17	2	13	14
          18	4	13	15
          19	1	13	16
          20	3	14	16
          21	2	16	17
          22	4	16	18
          23	1	16	19
          24	3	17	19
          25	2	19	20
          26	4	19	21
          27	1	19	22
          28	3	20	22
          29	2	22	23
          30	4	22	24
          31	1	22	25
          32	3	23	25
          33	2	25	26
          34	4	25	27
          35	1	25	28
          36	3	26	28
          37	2	28	29
          38	4	28	30
          39	1	28	31
          40	3	29	31
          41	2	31	32
          42	4	31	33
          43	1	31	34
          44	3	32	34
          45	2	34	35
          46	4	34	36
          47	1	34	37
          48	3	35	37
          49	2	37	38
          50	4	37	39
          51	1	37	40
          52	3	38	40
          53	2	40	41
          54	4	40	42
          55	1	40	43
          56	3	41	43
          57	2	43	44
          58	4	43	45
          59	1	43	46
          60	3	44	46
          61	2	46	47
          62	4	46	48
          63	1	46	49
          64	3	47	49
          65	2	49	50
          66	4	49	51
          67	1	49	52
          68	3	50	52
          69	2	52	53
          70	4	52	54
          71	1	52	55
          72	3	53	55
          73	2	55	56
          74	4	55	57
          75	1	55	58
          76	3	56	58
          77	2	58	59
          78	4	58	60
          79	1	58	61
          80	3	59	61
          81	2	61	62
          82	4	61	63
          83	1	61	64
          84	3	62	64
          85	2	64	65
          86	4	64	66
          87	1	64	67
          88	3	65	67
          89	2	67	68
          90	4	67	69
          91	1	67	70
          92	3	68	70
          93	2	70	71
          94	4	70	72
          95	1	70	73
          96	3	71	73
          97	2	73	74
          98	4	73	75
          99	1	73	76
         100	3	74	76
         101	2	76	77
         102	4	76	78
         103	1	76	79
         104	3	77	79
         105	2	79	80
         106	4	79	81
         107	1	79	82
         108	3	80	82
         109	2	82	83
         110	4	82	84
         111	1	82	85
         112	3	83	85
         113	2	85	86
         114	4	85	87
         115	1	85	88
         116	3	86	88
         117	2	88	89
         118	4	88	90
         119	1	88	91
         120	3	89	91
         121	2	91	92
         122	4	91	93
         123	1	91	94
         124	3	92	94
         125	2	94	95
         126	4	94	96
         127	1	94	97
         128	3	95	97
         129	2	97	98
         130	4	97	99
         131	1	97	100
         132	3	98	100
         133	2	100	101
         134	4	100	102
         135	1	100	103
         136	3	101	103
         137	2	103	104
         138	4	103	105
         139	1	103	106
         140	3	104	106
         141	2	106	107
         142	4	106	108
         143	1	106	109
         144	3	107	109
         145	2	109	110
         146	4	109	111
         147	1	109	112
         148	3	110	112
         149	2	112	113
         150	4	112	114
         151	1	112	115
         152	3	113	115
         153	2	115	116
         154	4	115	117
         155	1	115	118
         156	3	116	118
         157	2	118	119
         158	4	118	120
         159	1	118	121
         160	3	119	121
         161	2	121	122
         162	4	121	123
         163	1	121	124
         164	3	122	124
         165	2	124	125
         166	4	124	126
         167	1	124	127
         168	3	125	127
         169	2	127	128
         170	4	127	129
         171	1	127	130
         172	3	128	130
         173	2	130	131
         174	4	130	132
         175	1	130	133
         176	3	131	133
         177	2	133	134
         178	4	133	135
         179	1	133	136
         180	3	134	136
         181	2	136	137
         182	4	136	138
         183	1	136	139
         184	3	137	139
         185	2	139	140
         186	4	139	141
         187	1	139	142
         188	3	140	142
         189	2	142	143
         190	4	142	144
         191	1	142	145
         192	3	143	145
         193	2	145	146
         194	4	145	147
         195	1	145	148
         196	3	146	148
         197	2	148	149
         198	4	148	150
         199	1	148	151
         200	3	149	151
         201	2	151	152
         202	4	151	153
         203	1	151	154
         204	3	152	154
         205	2	154	155
         206	4	154	156
         207	1	154	157
         208	3	155	157
         209	2	157	158
         210	4	157	159
         211	1	157	160
         212	3	158	160
         213	2	160	161
         214	4	160	162
         215	1	160	163
         216	3	161	163
         217	2	163	164
         218	4	163	165
         219	1	163	166
         220	3	164	166
         221	2	166	167
         222	4	166	168
         223	1	166	169
         224	3	167	169
         225	2	169	170
         226	4	169	171
         227	1	169	172
         228	3	170	172
         229	2	172	173
         230	4	172	174
         231	1	172	175
         232	3	173	175
         233	2	175	176
         234	4	175	177
         235	1	175	178
         236	3	176	178
         237	2	178	179
         238	4	178	180
         239	1	178	181
         240	3	179	181
         241	2	181	182
         242	4	181	183
         243	1	181	184
         244	3	182	184
         245	2	184	185
         246	4	184	186
         247	1	184	187
         248	3	185	187
         249	2	187	188
         250	4	187	189
         251	1	187	190
         252	3	188	190
         253	2	190	191
         254	4	190	192
         255	1	190	193
         256	3	191	193
         257	2	193	194
         258	4	193	195
         259	1	193	196
         260	3	194	196
         261	2	196	197
         262	4	196	198
         263	1	196	199
         264	3	197	199
         265	2	199	200
         266	4	199	201
         267	1	199	202
         268	3	200	202
         269	2	202	203
         270	5	202	204
         271	1	202	205
         272	3	203	205
         273	2	205	206
         274	4	205	207
         275	1	205	208
         276	3	206	208
         277	2	208	209
         278	4	208	210
         279	1	208	211
         280	3	209	211
         281	2	211	212
         282	4	211	213
         283	1	211	214
         284	3	212	214
         285	2	214	215
         286	4	214	216
         287	1	214	217
         288	3	215	217
         289	2	217	218
         290	4	217	219
         291	1	217	220
         292	3	218	220
         293	2	220	221
         294	4	220	222
         295	1	220	223
         296	3	221	223
         297	2	223	224
         298	4	223	225
         299	1	223	226
         300	3	224	226
         301	2	226	227
         302	4	226	228
         303	1	226	229
         304	3	227	229
         305	2	229	230
         306	4	229	231
         307	1	229	232
         308	3	230	232
         309	2	232	233
         310	4	232	234
         311	1	232	235
         312	3	233	235
         313	2	235	236
         314	4	235	237
         315	1	235	238
         316	3	236	238
         317	2	238	239
         318	4	238	240
         319	1	238	241
         320	3	239	241
         321	2	241	242
         322	4	241	243
         323	1	241	244
         324	3	242	244
         325	2	244	245
         326	4	244	246
         327	1	244	247
         328	3	245	247
         329	2	247	248
         330	4	247	249