ITEM: TIMESTEP
0
ITEM: NUMBER OF ATOMS
372
ITEM: BOX BOUNDS ss ss ss
2.939 35.941
-1.514 31.803
6.039 45.272
ITEM: ATOMS id type xs ys zs
1 1 0.588631 0.0167782 0.386741
2 3 0.64987 0.0404898 0.413198
3 4 0.561148 0.00120059 0.415263
4 1 0.62675 0.120869 0.411337
5 3 0.592903 0.115947 0.465195
6 4 0.608478 0.159558 0.39686
7 1 0.65896 0.132425 0.504397
8 3 0.635052 0.198877 0.492774
9 4 0.701806 0.134226 0.51997
10 1 0.600842 0.209773 0.556649
11 3 0.617356 0.278506 0.544924
12 4 0.585207 0.20374 0.593098
13 1 0.696927 0.271783 0.566207
14 3 0.709078 0.322958 0.524329
15 4 0.736198 0.257346 0.583285
16 1 0.718017 0.269412 0.470752
17 3 0.687443 0.319116 0.434864
18 4 0.728107 0.231984 0.450157
19 1 0.609206 0.298256 0.450947
20 3 0.59357 0.368491 0.446079
21 4 0.571329 0.274545 0.460786
22 1 0.615993 0.38749 0.511177
23 3 0.636174 0.44923 0.484847
24 4 0.62678 0.38725 0.549257
25 1 0.712017 0.421857 0.466011
26 3 0.698564 0.47 0.421456
27 4 0.751015 0.397155 0.462187
28 1 0.665475 0.413663 0.377539
29 3 0.627204 0.46949 0.355237
30 4 0.652354 0.374223 0.360921
31 1 0.566784 0.464868 0.403614
32 3 0.553118 0.534802 0.409528
33 4 0.532725 0.443918 0.423419
34 1 0.605781 0.548129 0.460709
35 3 0.649597 0.601885 0.476053
36 4 0.591116 0.542786 0.497438
37 1 0.716441 0.57235 0.44539
38 3 0.726532 0.574301 0.385084
39 4 0.749742 0.542006 0.45449
40 1 0.752106 0.65366 0.383963
41 3 0.777801 0.719423 0.39556
42 4 0.717441 0.676351 0.366452
43 1 0.854494 0.691599 0.413428
44 3 0.894037 0.746556 0.392425
45 4 0.886249 0.664766 0.430454
46 1 0.890916 0.722304 0.325007
47 3 0.895643 0.786926 0.298754
48 4 0.885643 0.696941 0.292815
49 1 0.827889 0.817391 0.329824
50 3 0.813254 0.8167 0.389774
51 4 0.786861 0.81703 0.311065
52 1 0.825223 0.89729 0.398873
53 3 0.768832 0.915238 0.434379
54 4 0.851464 0.935288 0.398924
55 1 0.714684 0.920941 0.381516
56 3 0.709927 0.921992 0.320623
57 4 0.710896 0.964553 0.393138
58 1 0.628507 0.895579 0.320699
59 3 0.643749 0.95846 0.293758
60 4 0.584359 0.904043 0.329671
61 1 0.662839 0.923342 0.231565
62 3 0.623144 0.904193 0.183035
63 4 0.697927 0.900561 0.215049
64 1 0.572693 0.973227 0.187572
65 3 0.530665 0.927064 0.218872
66 4 0.58245 0.962392 0.150435
67 1 0.459336 0.953837 0.189203
68 3 0.423186 0.892757 0.179186
69 4 0.427307 0.982892 0.176
70 1 0.478941 0.861392 0.134581
71 3 0.505545 0.79521 0.14261
72 4 0.493213 0.864424 0.0976219
73 1 0.549755 0.81607 0.200928
74 3 0.544209 0.744455 0.20572
75 4 0.564784 0.837771 0.233197
76 1 0.469517 0.745355 0.236357
77 3 0.459154 0.681244 0.210588
78 4 0.432489 0.757511 0.257156
79 1 0.432519 0.710208 0.149619
80 3 0.465305 0.650058 0.130579
81 4 0.41852 0.736291 0.119899
82 1 0.542179 0.684635 0.128387
83 3 0.564784 0.619053 0.145133
84 4 0.575844 0.715881 0.123799
85 1 0.57039 0.638083 0.213774
86 3 0.556936 0.569199 0.226824
87 4 0.576753 0.662064 0.246706
88 1 0.474426 0.576492 0.226952
89 3 0.473062 0.508179 0.206943
90 4 0.430944 0.59237 0.228252
91 1 0.48997 0.528439 0.140061
92 3 0.530604 0.46892 0.138404
93 4 0.487122 0.55086 0.106084
94 1 0.603085 0.508989 0.147529
95 3 0.636507 0.455833 0.177759
96 4 0.635871 0.541285 0.144802
97 1 0.593994 0.465078 0.236689
98 3 0.558633 0.40793 0.259985
99 4 0.588298 0.49035 0.268881
100 1 0.514726 0.395054 0.199271
101 3 0.466002 0.362248 0.234904
102 4 0.536392 0.354444 0.198736
103 1 0.426883 0.433382 0.252517
104 3 0.356524 0.451661 0.247241
105 4 0.434428 0.467299 0.278184
106 1 0.354797 0.441937 0.176561
107 3 0.329162 0.410541 0.125634
108 4 0.358887 0.481166 0.155991
109 1 0.37119 0.339256 0.135982
110 3 0.317163 0.318426 0.0990493
111 4 0.400036 0.307201 0.149899
112 1 0.268893 0.288922 0.150154
113 3 0.198867 0.30594 0.158362
114 4 0.267741 0.247801 0.167334
115 1 0.21629 0.374313 0.196187
116 3 0.275832 0.40799 0.21589
117 4 0.194746 0.354414 0.226366
118 1 0.239622 0.481736 0.221421
119 3 0.207381 0.481946 0.276094
120 4 0.21735 0.519525 0.209135
121 1 0.277438 0.482576 0.3129
122 3 0.273256 0.554132 0.306885
123 4 0.321284 0.480866 0.32544
124 1 0.20726 0.564066 0.348533
125 3 0.230501 0.631509 0.357454
126 4 0.169868 0.552571 0.369434
127 1 0.282437 0.6114 0.410547
128 3 0.327404 0.558454 0.42714
129 4 0.262863 0.622025 0.44511
130 1 0.396582 0.604466 0.421737
131 3 0.426489 0.668908 0.409961
132 4 0.412763 0.580154 0.39166
133 1 0.477365 0.666387 0.466062
134 3 0.53215 0.619323 0.46782
135 4 0.47388 0.676051 0.504295
136 1 0.587358 0.67284 0.43782
137 3 0.600479 0.73482 0.466979
138 4 0.597267 0.682775 0.400683
139 1 0.669929 0.706516 0.499554
140 3 0.73138 0.691149 0.469503
141 4 0.678504 0.682024 0.532307
142 1 0.756924 0.770598 0.467362
143 3 0.803103 0.810487 0.500089
144 4 0.748561 0.809797 0.448551
145 1 0.837434 0.743344 0.531619
146 3 0.844767 0.678272 0.50664
147 4 0.821344 0.744185 0.568348
148 1 0.919823 0.664315 0.534091
149 3 0.874826 0.63277 0.574083
150 4 0.961487 0.669058 0.550582
151 1 0.888158 0.556623 0.549588
152 3 0.876492 0.542516 0.60913
153 4 0.902945 0.520035 0.529478
154 1 0.954366 0.560255 0.629394
155 3 0.920156 0.575052 0.682206
156 4 0.998788 0.57196 0.630388
157 1 0.896188 0.651049 0.663345
158 3 0.838283 0.639253 0.699105
159 4 0.892613 0.691959 0.645783
160 1 0.794497 0.599184 0.650218
161 3 0.770923 0.556383 0.695384
162 4 0.774468 0.589579 0.615094
163 1 0.830253 0.500345 0.688477
164 3 0.823435 0.491401 0.748961
165 4 0.865614 0.474262 0.676344
166 1 0.868281 0.559354 0.765351
167 3 0.831041 0.570039 0.817042
168 4 0.896037 0.595882 0.763414
169 1 0.75959 0.588558 0.785385
170 3 0.72338 0.562145 0.833915
171 4 0.726623 0.600894 0.759233
172 1 0.74241 0.482907 0.820891
173 3 0.750258 0.457784 0.877552
174 4 0.754106 0.443677 0.803431
175 1 0.807527 0.515262 0.896541
176 3 0.814496 0.566768 0.938649
177 4 0.853615 0.513342 0.892667
178 1 0.756015 0.615512 0.910611
179 3 0.713017 0.587268 0.95333
180 4 0.754257 0.645196 0.880636
181 1 0.653263 0.643575 0.949405
182 3 0.600751 0.610409 0.918054
183 4 0.632749 0.684786 0.946831
184 1 0.587843 0.55119 0.966024
185 3 0.536907 0.585947 0.99898
186 4 0.597327 0.518504 0.992302
187 1 0.47685 0.576582 0.949838
188 3 0.460245 0.516313 0.919583
189 4 0.470699 0.615362 0.928912
190 1 0.37931 0.520005 0.932124
191 3 0.375614 0.557583 0.879591
192 4 0.339464 0.524747 0.951597
193 1 0.352524 0.491551 0.841078
194 3 0.284862 0.496053 0.862947
195 4 0.361221 0.450611 0.824892
196 1 0.251803 0.523697 0.802284
197 3 0.190746 0.491131 0.820202
198 4 0.245046 0.537383 0.765529
199 1 0.220168 0.414443 0.809013
200 3 0.204654 0.368641 0.85423
201 4 0.235561 0.381577 0.784799
202 1 0.245167 0.410421 0.903143
203 3 0.290255 0.378696 0.942319
204 5 0.242622 0.390326 0.863748
205 1 0.345403 0.355404 0.892922
206 3 0.369765 0.420176 0.910484
207 4 0.364523 0.342588 0.859073
208 1 0.43258 0.391392 0.948436
209 3 0.504666 0.400156 0.953381
210 4 0.432095 0.379836 0.98672
211 1 0.521423 0.375004 0.887926
212 3 0.551209 0.404298 0.837968
213 4 0.527695 0.334364 0.870109
214 1 0.514908 0.478735 0.847399
215 3 0.545755 0.511601 0.895292
216 4 0.474123 0.498814 0.840262
217 1 0.594267 0.560585 0.853975
218 3 0.585571 0.597233 0.80208
219 4 0.637325 0.543897 0.850228
220 1 0.589207 0.672209 0.835164
221 3 0.652233 0.692559 0.860271
222 4 0.559996 0.698622 0.855785
223 1 0.683383 0.724015 0.800933
224 3 0.657324 0.784644 0.825198
225 4 0.691534 0.73485 0.763592
226 1 0.72735 0.801903 0.861775
227 3 0.714381 0.871987 0.851273
228 4 0.768347 0.799172 0.880101
229 1 0.744712 0.871777 0.786838
230 3 0.700079 0.835489 0.749548
231 4 0.78777 0.87793 0.773125
232 1 0.680625 0.900801 0.711162
233 3 0.744349 0.890927 0.682844
234 4 0.663384 0.942552 0.702546
235 1 0.709715 0.854849 0.626131
236 3 0.651112 0.87724 0.595749
237 4 0.710411 0.808986 0.625902
238 1 0.691291 0.885404 0.534805
239 3 0.683959 0.81634 0.518008
240 4 0.723653 0.89828 0.509189
241 1 0.604054 0.822943 0.50037
242 3 0.569693 0.873818 0.468279
243 4 0.577935 0.803914 0.528917
244 1 0.530392 0.819341 0.427013
245 3 0.501727 0.753249 0.429027
246 4 0.549058 0.81601 0.390997
247 1 0.423671 0.779392 0.434685
248 3 0.404218 0.809196 0.38149
249 4 0.391037 0.794789 0.458925
250 1 0.378856 0.7356 0.354013
251 3 0.331556 0.688207 0.37629
252 4 0.404551 0.704925 0.334642
253 1 0.264439 0.726116 0.348763
254 3 0.247894 0.757361 0.295313
255 4 0.241773 0.751838 0.374888
256 1 0.195443 0.695981 0.275992
257 3 0.147567 0.742714 0.299034
258 4 0.170444 0.657592 0.275508
259 1 0.137295 0.784074 0.238855
260 3 0.0965396 0.73539 0.210027
261 4 0.155021 0.814029 0.212908
262 1 0.0252712 0.77636 0.218541
263 3 0.00121205 0.744635 0.167563
264 5 0.0645415 0.722885 0.206778
265 1 0.061572 0.778251 0.126857
266 3 0.109781 0.741964 0.0925241
267 4 0.0782074 0.81694 0.111131
268 1 0.117326 0.678753 0.138633
269 3 0.0609357 0.635021 0.148676
270 4 0.143355 0.672389 0.170418
271 1 0.0839949 0.579134 0.100757
272 3 0.12672 0.555722 0.0554635
273 4 0.0480274 0.588768 0.0774348
274 1 0.144749 0.483237 0.0873499
275 3 0.0934489 0.467359 0.0459817
276 4 0.144476 0.447219 0.111717
277 1 0.20223 0.463757 0.0322433
278 3 0.257227 0.50986 0.0242398
279 4 0.217229 0.435333 0.00468993
280 1 0.209502 0.577453 0.0263299
281 3 0.184625 0.625266 0.0673413
282 4 0.182959 0.600264 0.00101955
283 1 0.240258 0.603176 0.117146
284 3 0.281407 0.656692 0.0952515
285 4 0.269105 0.578113 0.138939
286 1 0.249349 0.71381 0.139704
287 3 0.228926 0.712699 0.198099
288 4 0.216351 0.739983 0.123926
289 1 0.295255 0.75442 0.221497
290 3 0.323193 0.818741 0.207122
291 4 0.331131 0.730138 0.235006
292 1 0.299891 0.852508 0.269569
293 3 0.342525 0.821412 0.311957
294 4 0.265317 0.867725 0.29205
295 1 0.406097 0.876069 0.302755
296 3 0.400976 0.943512 0.323503
297 4 0.441216 0.885404 0.277827
298 1 0.414278 0.924423 0.390513
299 3 0.457215 0.890656 0.431142
300 4 0.377371 0.921421 0.414753
301 1 0.519696 0.947504 0.424311
302 3 0.492667 0.996758 0.462519
303 4 0.550724 0.970946 0.403206
304 1 0.531756 0.967854 0.518925
305 3 0.591934 0.929375 0.529299
306 4 0.492455 0.954468 0.536156
307 1 0.604691 0.963472 0.593174
308 3 0.571935 0.98046 0.645401
309 4 0.63378 0.998799 0.596666
310 1 0.564723 0.902662 0.666837
311 3 0.610993 0.847375 0.66699
312 4 0.519878 0.892998 0.66156
313 1 0.586571 0.822193 0.731782
314 3 0.530301 0.788006 0.705936
315 4 0.574632 0.824414 0.769505
316 1 0.568844 0.717171 0.698494
317 3 0.583813 0.687817 0.752836
318 4 0.595206 0.697662 0.669997
319 1 0.52315 0.630879 0.747763
320 3 0.498788 0.586667 0.704611
321 4 0.481759 0.637632 0.764739
322 1 0.550482 0.524417 0.722045
323 3 0.556997 0.495183 0.777662
324 4 0.590964 0.519465 0.702164
325 1 0.531604 0.419546 0.756226
326 3 0.584601 0.394903 0.720032
327 4 0.495121 0.394243 0.745801
328 1 0.627295 0.358766 0.771646
329 3 0.600539 0.30642 0.807025
330 4 0.661445 0.380376 0.79061
331 1 0.648567 0.247801 0.77965
332 3 0.704745 0.239187 0.741748
333 4 0.608509 0.228412 0.76846
334 1 0.725138 0.164661 0.768333
335 3 0.770923 0.195246 0.80835
336 5 0.692322 0.128857 0.688459
337 1 0.837283 0.151844 0.783524
338 3 0.864948 0.116607 0.735656
339 4 0.847191 0.117087 0.807585
340 1 0.878644 0.222259 0.75569
341 3 0.80983 0.232884 0.737237
342 4 0.906763 0.247711 0.733617
343 1 0.792316 0.28595 0.791732
344 3 0.806587 0.353543 0.774221
345 4 0.792467 0.300777 0.828537
346 1 0.763681 0.34736 0.713583
347 3 0.69211 0.335594 0.713175
348 4 0.786437 0.334424 0.680932
349 1 0.672141 0.402227 0.676293
350 3 0.67102 0.358406 0.627329
351 4 0.677201 0.443827 0.660235
352 1 0.591055 0.334664 0.637525
353 3 0.528544 0.335354 0.606275
354 4 0.582965 0.293574 0.655647
355 1 0.502091 0.407059 0.63207
356 3 0.52315 0.464988 0.663778
357 4 0.467941 0.3868 0.652512
358 1 0.484243 0.518864 0.621186
359 3 0.411672 0.521145 0.618255
360 4 0.489152 0.540415 0.587082
361 1 0.402824 0.547648 0.684781
362 3 0.348949 0.59249 0.669462
363 4 0.40849 0.542546 0.723294
364 1 0.395461 0.660684 0.674075
365 3 0.464729 0.679803 0.682206
366 4 0.362433 0.671249 0.70038
367 1 0.449276 0.761053 0.674993
368 3 0.393097 0.799082 0.696021
369 4 0.460396 0.777351 0.639717
370 1 0.44064 0.849056 0.736064
371 3 0.502757 0.883933 0.742691
372 4 0.441064 0.838731 0.774476
