LAMMPS protain data file

         405  atoms
         538  bonds
           0  angles
           0  dihedrals
           0  impropers

           5  atom types
           5  bond types
           0  angle types
           0  dihedral types
           0  improper types

-200.0	200.0	xlo xhi
-200.0	200.0	ylo yhi
-200.0	200.0	zlo zhi

Masses

           1	27.0
           2	14.0
           3	28.0
           4	60.0
           5	60.0

Atoms

           1	1	1	1	0.0	0.88300002	36.06299973	21.37999916
           2	1	1	3	0.0	1.17200005	37.80099869	19.75699997
           3	1	1	4	0.0	0.491	34.79399872	20.63800049
           4	1	2	1	0.0	3.86299992	37.35100174	19.45000076
           5	1	2	3	0.0	5.40399981	35.52899933	19.74799919
           6	1	2	4	0.0	4.36899996	38.70399857	19.9470005
           7	1	3	1	0.0	6.50099993	35.98500061	17.14800072
           8	1	3	3	0.0	8.07400036	37.74499893	17.82699966
           9	1	3	4	0.0	6.40199995	36.06900024	15.63700008
          10	1	4	1	0.0	10.13399982	35.91400146	18.18199921
          11	1	4	3	0.0	10.71800041	34.03499985	16.82999992
          12	1	4	4	0.0	10.47900009	35.43000031	19.56699944
          13	1	5	1	0.0	13.0010004	35.20800018	15.84300041
          14	1	5	3	0.0	13.84599972	33.96500015	17.76600075
          15	1	5	4	0.0	13.84000015	36.35800171	15.34899998
          16	1	6	1	0.0	14.8039999	31.90099907	16.09199905
          17	1	6	3	0.0	15.23600006	32.04199982	13.70199966
          18	1	6	4	0.0	13.94400024	30.73500061	16.5340004
          19	1	7	1	0.0	17.4640007	30.375	13.8920002
          20	1	7	3	0.0	17.67000008	28.29999924	14.99199963
          21	1	7	4	0.0	18.9279995	30.91900063	14.18999958
          22	1	8	1	0.0	17.27499962	26.81299973	12.64599991
          23	1	8	3	0.0	19.70999908	26.79999924	12.56200027
          24	1	8	4	0.0	16.9279995	26.50699997	11.20499992
          25	1	9	1	0.0	19.93499947	24.54000092	14.04399967
          26	1	9	3	0.0	20.61400032	22.89699936	12.35099983
          27	1	9	4	0.0	20.1590004	24.2310009	15.5369997
          28	1	10	1	0.0	18.44199944	21.28499985	12.84500027
          29	1	10	3	0.0	16.48800087	20.82900047	14.15799999
          30	1	10	4	0.0	19.37999916	20.3029995	13.53800011
          31	1	11	1	0.0	15.08699989	19.79999924	12.0
          32	1	11	3	0.0	16.25699997	17.75600052	11.84399986
          33	1	11	4	0.0	14.35499954	19.94199944	10.70100021
          34	1	12	1	0.0	14.82999992	16.52899933	13.93299961
          35	1	12	3	0.0	14.22599983	14.60400009	12.5909996
          36	1	12	4	0.0	14.64000034	16.34600067	15.46500015
          37	1	13	1	0.0	11.56299973	15.30799961	12.47299957
          38	1	13	3	0.0	10.83399963	17.54999924	12.07800007
          39	1	13	4	0.0	11.09700012	14.01200008	13.07699966
          40	1	14	1	0.0	8.26299953	16.71800041	11.29199982
          41	1	14	3	0.0	7.44199991	18.82299995	11.96700001
          42	1	14	5	0.0	9.3579998	15.85998704	9.48354847
          43	1	15	1	0.0	7.28599977	18.25099945	14.62199974
          44	1	15	3	0.0	7.84200001	19.4470005	16.57099915
          45	1	15	4	0.0	5.98899984	17.6420002	15.19400024
          46	1	16	1	0.0	10.54500008	18.61100006	16.52799988
          47	1	16	3	0.0	12.32199955	18.51199913	14.94200039
          48	1	16	4	0.0	10.93200016	17.33799934	17.375
          49	1	17	1	0.0	13.28899956	21.03000069	15.64999962
          50	1	17	3	0.0	13.66100025	21.98500061	17.84799957
          51	1	17	4	0.0	12.74800014	22.02000046	14.60499954
          52	1	18	1	0.0	16.40200043	22.41200066	17.25099945
          53	1	18	3	0.0	16.92300034	23.96899986	15.5010004
          54	1	18	4	0.0	17.74600029	21.72400093	17.31800079
          55	1	19	1	0.0	16.48600006	26.18099976	17.12400055
          56	1	19	3	0.0	17.36499977	26.53000069	19.32500076
          57	1	19	4	0.0	15.11299992	26.83799934	17.10899925
          58	1	20	1	0.0	18.75300026	28.86899948	18.45700073
          59	1	20	3	0.0	17.10300064	30.60700035	18.02400017
          60	1	20	4	0.0	19.86199951	29.5720005	17.71199989
          61	1	21	1	0.0	16.32799911	30.78499985	20.6590004
          62	1	21	3	0.0	17.39100075	30.99200058	22.79199982
          63	1	21	4	0.0	15.0369997	30.02099991	21.01000023
          64	1	22	1	0.0	17.62700081	33.85599899	22.49099922
          65	1	22	3	0.0	19.52099991	33.4679985	23.93300056
          66	1	22	4	0.0	16.85000038	34.01900101	23.78199959
          67	1	23	1	0.0	21.13500023	32.71300125	21.72900009
          68	1	23	3	0.0	22.37800026	31.12999916	23.04599953
          69	1	23	5	0.0	19.74500084	31.04651775	19.88353932
          70	1	24	1	0.0	20.32500076	29.32299995	23.24300003
          71	1	24	3	0.0	18.63800049	28.37000084	21.8409996
          72	1	24	4	0.0	19.61899948	29.51799965	24.57699966
          73	1	25	1	0.0	20.08699989	26.05500031	21.35700035
          74	1	25	3	0.0	19.13199997	25.27199936	23.44199944
          75	1	25	4	0.0	21.28000069	25.12700081	21.26000023
          76	1	26	1	0.0	16.68000031	24.63400078	22.18799973
          77	1	26	3	0.0	15.84799957	24.03899956	20.04999924
          78	1	26	4	0.0	15.69900036	25.75600052	22.51199913
          79	1	27	1	0.0	14.57299995	21.77499962	20.91300011
          80	1	27	3	0.0	12.66399956	22.5720005	22.20400047
          81	1	27	4	0.0	14.85400009	20.25200081	20.93000031
          82	1	28	1	0.0	11.10999966	22.96800041	19.94099998
          83	1	28	3	0.0	10.65400028	21.04599953	18.625
          84	1	28	4	0.0	10.9119997	24.19799995	19.0890007
          85	1	29	1	0.0	8.05000019	20.80599976	19.60099983
          86	1	29	3	0.0	6.48500013	22.58099937	19.81800079
          87	1	29	4	0.0	7.70800018	19.91900063	20.78300095
          88	1	30	1	0.0	5.29699993	22.07299995	17.31500053
          89	1	30	3	0.0	3.66400003	20.72999954	18.4109993
          90	1	30	4	0.0	5.17000008	21.6060009	15.8579998
          91	1	31	1	0.0	2.19700003	22.97699928	19.34000015
          92	1	31	3	0.0	1.10000002	22.67700005	17.20000076
          93	1	31	4	0.0	1.78999996	24.41900063	19.70599937
          94	1	32	1	0.0	-1.06299996	21.23900032	18.53700066
          95	1	32	3	0.0	-2.01200008	20.00499916	16.80200005
          96	1	32	4	0.0	-1.95599997	22.43799973	18.13699913
          97	1	33	1	0.0	0.285	18.86000061	15.93700027
          98	1	33	3	0.0	1.75100005	17.66300011	17.40699959
          99	1	33	4	0.0	0.898	19.51399994	14.68299961
         100	1	34	1	0.0	1.65100002	15.38300037	15.69999981
         101	1	34	3	0.0	1.08200002	14.4460001	13.57999992
         102	1	34	4	0.0	0.95700002	14.29899979	16.52799988
         103	1	35	1	0.0	3.73000002	14.36200047	12.69699955
         104	1	35	3	0.0	4.32600021	12.71199989	14.2840004
         105	1	35	4	0.0	5.00899982	15.03499985	12.09899998
         106	1	36	1	0.0	4.28599977	10.61999989	12.39999962
         107	1	36	3	0.0	6.671	11.23499966	12.52400017
         108	1	36	4	0.0	3.98600006	9.91300011	11.0880003
         109	1	37	1	0.0	7.1170001	9.20800018	14.43599987
         110	1	37	3	0.0	7.58199978	7.704	12.63099957
         111	1	37	4	0.0	6.84200001	8.13799953	15.5
         112	1	38	1	0.0	10.33899975	8.28100014	12.68200016
         113	1	38	3	0.0	12.38500023	7.07499981	13.11699963
         114	1	38	4	0.0	10.94900036	9.36100006	11.70400047
         115	1	39	1	0.0	12.30300045	7.76900005	15.85299969
         116	1	39	3	0.0	12.41699982	5.50299978	16.64900017
         117	1	39	4	0.0	12.60599995	9.00800037	16.72100067
         118	1	40	1	0.0	10.84500027	6.11399984	18.90200043
         119	1	40	3	0.0	9.45400047	4.4749999	17.78100014
         120	1	40	4	0.0	9.78299999	6.79199982	19.79700089
         121	1	41	1	0.0	11.03999996	2.32200003	18.73600006
         122	1	41	3	0.0	9.07400036	0.977	18.3579998
         123	1	41	4	0.0	12.14500046	1.62899995	19.53800011
         124	1	42	1	0.0	7.79199982	1.93299997	20.64599991
         125	1	42	3	0.0	5.61000013	1.84800005	19.68199921
         126	1	42	4	0.0	7.49599981	2.44099998	22.03800011
         127	1	43	1	0.0	6.18300009	3.6789999	17.67700005
         128	1	43	3	0.0	5.75299978	2.83400011	15.46800041
         129	1	43	4	0.0	5.97200012	5.17600012	17.66500092
         130	1	44	1	0.0	8.5340004	2.75699997	14.82499981
         131	1	44	3	0.0	7.80900002	4.95300007	14.18400002
         132	1	44	5	0.0	7.921	1.44389211	13.295323
         133	1	45	1	0.0	8.9289999	4.71099997	11.57999992
         134	1	45	3	0.0	7.19899988	3.61500001	10.38199997
         135	1	45	4	0.0	9.93799973	4.43499994	10.46000004
         136	1	46	1	0.0	5.30600023	5.5710001	10.91800022
         137	1	46	3	0.0	6.03599977	6.88999987	9.0340004
         138	1	46	4	0.0	4.44399977	6.27899981	11.94099998
         139	1	47	1	0.0	3.65700006	6.30499983	7.60099983
         140	1	47	3	0.0	2.93099999	8.42300034	8.51500034
         141	1	47	4	0.0	2.37899995	5.68400002	7.05700016
         142	1	48	1	0.0	4.3499999	9.85700035	6.50199986
         143	1	48	3	0.0	5.67799997	11.66499996	7.38600016
         144	1	48	4	0.0	2.91700006	10.40499973	6.67399979
         145	1	49	1	0.0	6.93599987	10.05200005	9.26299953
         146	1	49	3	0.0	8.18700027	12.00399971	8.69799995
         147	1	49	5	0.0	5.91900015	9.35069457	10.08492805
         148	1	50	1	0.0	9.64900017	10.61200047	6.65999985
         149	1	50	3	0.0	10.06499958	12.7670002	5.72100019
         150	1	50	4	0.0	10.01299953	9.43400002	5.76100016
         151	1	51	1	0.0	7.47200012	12.87199974	4.53700018
         152	1	51	3	0.0	7.70800018	15.20199966	4.9460001
         153	1	51	4	0.0	6.10400009	12.54699993	3.9749999
         154	1	52	1	0.0	6.59700012	15.08500004	7.52600002
         155	1	52	3	0.0	8.04599953	16.95199966	7.93100023
         156	1	52	4	0.0	5.82600021	14.5909996	8.73900032
         157	1	53	1	0.0	10.25500011	15.43900013	8.45499992
         158	1	53	3	0.0	11.47399998	17.22599983	7.48600006
         159	1	53	4	0.0	11.27900028	14.375	8.79699993
         160	1	54	1	0.0	11.27099991	16.27300072	4.8829999
         161	1	54	3	0.0	11.31400013	18.61400032	4.36199999
         162	1	54	4	0.0	11.03800011	15.40799999	3.65499997
         163	1	55	1	0.0	8.51099968	18.82799911	4.69999981
         164	1	55	3	0.0	9.36600018	21.02300072	5.26599979
         165	1	55	4	0.0	7.04400015	18.47400093	4.84499979
         166	1	56	1	0.0	9.41499996	20.58499908	7.96299982
         167	1	56	3	0.0	11.17099953	22.20899963	7.63899994
         168	1	56	4	0.0	9.40400028	19.87000084	9.37699986
         169	1	57	1	0.0	13.06700039	20.27300072	7.09100008
         170	1	57	3	0.0	13.86299992	22.3390007	6.21799994
         171	1	57	4	0.0	13.82999992	19.01199913	6.7249999
         172	1	58	1	0.0	12.60299969	21.79999924	3.65100002
         173	1	58	3	0.0	12.73700047	24.20199966	3.53900003
         174	1	58	4	0.0	11.71399975	21.24699974	2.54699993
         175	1	59	1	0.0	10.27099991	24.5359993	4.8210001
         176	1	59	3	0.0	11.30900002	26.61400032	5.55600023
         177	1	59	4	0.0	8.95899963	24.24099922	5.55499983
         178	1	60	1	0.0	12.6079998	25.50799942	7.6079998
         179	1	60	3	0.0	14.46700001	26.9640007	7.25
         180	1	60	4	0.0	12.72999954	24.76300049	8.92300034
         181	1	61	1	0.0	15.86800003	25.2310009	5.70599985
         182	1	61	3	0.0	16.81999969	27.0510006	4.60500002
         183	1	61	4	0.0	16.50600052	23.98999977	5.10900021
         184	1	62	1	0.0	14.60000038	27.34000015	2.80500007
         185	1	62	3	0.0	13.80700016	29.57099915	2.48799992
         186	1	62	4	0.0	13.72999954	26.73200035	1.68499994
         187	1	63	1	0.0	13.1789999	29.99799919	5.12200022
         188	1	63	3	0.0	15.43299961	30.80900002	5.62200022
         189	1	63	4	0.0	12.43000031	29.77199936	6.42700005
         190	1	64	1	0.0	14.66600037	33.45399857	5.25699997
         191	1	64	3	0.0	15.5170002	34.09199905	7.43499994
         192	1	64	4	0.0	14.25	34.69400024	4.5079999
         193	1	65	1	0.0	12.97500038	34.00699997	8.60999966
         194	1	65	3	0.0	11.18200016	32.40000153	8.87800026
         195	1	65	4	0.0	12.10299969	35.27399826	8.57499981
         196	1	66	1	0.0	12.10499954	31.58099937	11.36200047
         197	1	66	3	0.0	12.46199989	33.16600037	13.17300034
         198	1	66	4	0.0	12.9289999	30.34700012	11.83699989
         199	1	67	1	0.0	9.84300041	32.75999832	14.15400028
         200	1	67	3	0.0	8.47700024	30.79899979	14.36800003
         201	1	67	4	0.0	8.88799953	33.87799835	13.85299969
         202	1	68	1	0.0	8.65400028	30.98699951	17.25099945
         203	1	68	3	0.0	7.73999977	33.08599854	18.11100006
         204	1	68	4	0.0	9.69400024	30.41500092	18.20299911
         205	1	69	1	0.0	5.33900023	31.89999962	18.74699974
         206	1	69	3	0.0	4.09100008	30.01300049	19.57500076
         207	1	69	4	0.0	4.21199989	32.1590004	17.76399994
         208	1	70	1	0.0	4.68499994	30.63500023	22.24500084
         209	1	70	3	0.0	2.69400001	31.90999985	21.89900017
         210	1	70	4	0.0	5.46999979	31.02099991	23.48200035
         211	1	71	1	0.0	1.11699998	30.12100029	23.33499908
         212	1	71	3	0.0	2.0480001	31.35300064	25.19599915
         213	1	71	4	0.0	0.303	28.86599922	23.1420002
         214	1	72	1	0.0	-0.48100001	31.4489994	26.51399994
         215	1	72	3	0.0	-0.20200001	31.12000084	28.84000015
         216	1	72	4	0.0	-1.96399999	31.86300087	26.59499931
         217	1	73	1	0.0	0.296	28.38500023	28.65099907
         218	1	73	3	0.0	2.61999989	29.03000069	28.52400017
         219	1	73	5	0.0	0.015	25.88423889	27.83787856
         220	1	74	1	0.0	3.47399998	26.42399979	29.31699944
         221	1	74	3	0.0	3.68099999	26.27099991	26.90200043
         222	1	74	4	0.0	3.57299995	24.95100021	29.68799973
         223	1	75	1	0.0	6.31899977	27.13500023	26.93300056
         224	1	75	3	0.0	7.96600008	25.96100044	25.73999977
         225	1	75	4	0.0	7.19799995	28.36199951	26.99500084
         226	1	76	1	0.0	8.00300026	23.79400063	27.50699997
         227	1	76	3	0.0	6.29199982	22.86400032	28.80800056
         228	1	76	4	0.0	9.33899975	23.91500092	28.3239994
         229	1	77	1	0.0	6.75400019	20.20100021	27.79599953
         230	1	77	3	0.0	8.78999996	20.12100029	29.13100052
         231	1	77	4	0.0	6.38000011	19.3390007	26.61499977
         232	1	78	1	0.0	8.07199955	17.71800041	30.37800026
         233	1	78	3	0.0	10.35200024	17.06200027	30.76099968
         234	1	78	4	0.0	7.33900023	16.4489994	30.80200005
         235	1	79	1	0.0	10.97799969	16.93499947	28.04599953
         236	1	79	3	0.0	12.98799992	18.06800079	27.3920002
         237	1	79	4	0.0	10.75500011	16.23800087	26.69799995
         238	1	80	1	0.0	12.10400009	20.53499985	28.18700027
         239	1	80	3	0.0	12.93799973	21.96999931	26.49200058
         240	1	80	5	0.0	11.30000019	20.07023249	27.17180279
         241	1	81	1	0.0	11.14400005	21.17099953	24.55800056
         242	1	81	3	0.0	9.14299965	22.34900093	25.16500092
         243	1	81	4	0.0	10.61600018	20.26300049	23.49799919
         244	1	82	1	0.0	9.81299973	24.66699982	23.80900002
         245	1	82	3	0.0	8.69699955	23.42000008	22.0720005
         246	1	82	5	0.0	10.63599968	24.51859487	22.72044769
         247	1	83	1	0.0	6.1789999	24.48699951	22.73200035
         248	1	83	3	0.0	5.41599989	26.77199936	22.73500061
         249	1	83	4	0.0	5.14400005	24.07999992	23.79100037
         250	1	84	1	0.0	5.46199989	26.95999908	19.9829998
         251	1	84	3	0.0	4.78399992	25.4260006	18.22699928
         252	1	84	4	0.0	6.80600023	27.66600037	19.72500038
         253	1	85	1	0.0	3.83400011	27.68300056	16.69599915
         254	1	85	3	0.0	5.67399979	29.20899963	16.46999931
         255	1	85	4	0.0	2.68199992	28.65699959	16.53499985
         256	1	86	1	0.0	6.77600002	27.97699928	14.34500027
         257	1	86	3	0.0	5.64799976	27.78700066	12.28899956
         258	1	86	4	0.0	7.87599993	26.90299988	14.41800022
         259	1	87	1	0.0	6.66900015	30.21899986	11.30700016
         260	1	87	3	0.0	8.97299957	30.63599968	10.94999981
         261	1	87	4	0.0	6.18599987	31.66399956	11.52700043
         262	1	88	1	0.0	8.86400032	29.9640007	8.22399998
         263	1	88	3	0.0	7.28599977	30.75799942	6.60400009
         264	1	88	4	0.0	9.15999985	28.62299919	7.63500023
         265	1	89	1	0.0	8.67800045	33.26200104	6.35699987
         266	1	89	3	0.0	6.4829998	33.67599869	5.50899982
         267	1	89	4	0.0	9.0909996	33.06999969	4.90600014
         268	1	90	1	0.0	5.44099998	33.99000168	8.13199997
         269	1	90	3	0.0	3.23200011	33.17399979	8.09899998
         270	1	90	5	0.0	6.80000019	32.8197455	8.12729158
         271	1	91	1	0.0	3.94700003	30.60899925	7.23500013
         272	1	91	3	0.0	5.20699978	29.24600029	8.75
         273	1	91	4	0.0	4.19899988	29.80699921	5.9829998
         274	1	92	1	0.0	3.01099992	28.56100082	10.30000019
         275	1	92	3	0.0	2.48600006	26.47999954	9.19799995
         276	1	92	4	0.0	1.73399997	28.63800049	11.1079998
         277	1	93	1	0.0	4.78499985	25.25300026	9.93500042
         278	1	93	3	0.0	3.44700003	23.30699921	9.82999992
         279	1	93	4	0.0	6.17600012	24.83600044	10.43999958
         280	1	94	1	0.0	2.27900004	23.69199944	12.30599976
         281	1	94	3	0.0	0.63700002	22.3409996	11.17000008
         282	1	94	4	0.0	1.852	24.11800003	13.68099976
         283	1	95	1	0.0	-0.58899999	24.56999969	9.94200039
         284	1	95	3	0.0	-0.98400003	23.13899994	8.06599998
         285	1	95	4	0.0	-1.14999998	25.95899963	9.68599987
         286	1	96	1	0.0	1.45899999	23.84199905	6.84000015
         287	1	96	3	0.0	0.83399999	21.6760006	5.93599987
         288	1	96	4	0.0	2.852	24.3560009	6.60599995
         289	1	97	1	0.0	1.92999995	20.22500038	7.98699999
         290	1	97	3	0.0	0.27599999	18.58099937	7.45300007
         291	1	97	4	0.0	2.70300007	19.87700081	9.25500011
         292	1	98	1	0.0	-1.71000004	19.80500031	8.99499989
         293	1	98	3	0.0	-3.12700009	18.94300079	7.22900009
         294	1	98	4	0.0	-2.40300012	20.62400055	10.11800003
         295	1	99	1	0.0	-2.94799995	21.32799911	5.7750001
         296	1	99	3	0.0	-3.4059999	19.95499992	3.90400004
         297	1	99	4	0.0	-2.67700005	22.74900055	5.29500008
         298	1	100	1	0.0	-0.82999998	18.77400017	3.852
         299	1	100	3	0.0	-0.69199997	16.4090004	3.56100011
         300	1	100	4	0.0	0.69999999	18.85300064	3.68600011
         301	1	101	1	0.0	-2.13400006	15.76000023	5.76200008
         302	1	101	3	0.0	-0.73299998	13.89299965	6.14900017
         303	1	101	5	0.0	-1.84500003	13.82312135	5.47424008
         304	1	102	1	0.0	1.36399996	15.39799976	7.2670002
         305	1	102	3	0.0	2.38199997	14.94799995	9.43799973
         306	1	102	4	0.0	2.51300001	16.13400078	6.60099983
         307	1	103	1	0.0	0.29899999	16.00499916	10.84000015
         308	1	103	3	0.0	-2.0150001	16.42099953	10.31299973
         309	1	103	4	0.0	1.01999998	17.20899963	11.40499973
         310	1	104	1	0.0	-2.8269999	15.53800011	12.875
         311	1	104	3	0.0	-1.76100004	16.79800034	14.64000034
         312	1	104	4	0.0	-3.3499999	14.18400002	13.21000004
         313	1	105	1	0.0	-4.07700014	18.11100006	15.35299969
         314	1	105	3	0.0	-4.98199987	16.38999939	16.75300026
         315	1	105	4	0.0	-5.29500008	19.00300026	15.23099995
         316	1	106	1	0.0	-2.94000006	16.4810009	18.60499954
         317	1	106	3	0.0	-2.08699989	18.49099922	19.62899971
         318	1	106	4	0.0	-2.02099991	15.30300045	18.28899956
         319	1	107	1	0.0	-1.98699999	17.28000069	22.18000031
         320	1	107	3	0.0	-1.71099997	19.61199951	22.74500084
         321	1	107	4	0.0	-0.43700001	17.2859993	22.06399918
         322	1	108	1	0.0	-4.42799997	20.12000084	22.45400047
         323	1	108	3	0.0	-5.5539999	19.78100014	24.54400063
         324	1	108	4	0.0	-5.75600004	20.22400093	21.69400024
         325	1	109	1	0.0	-3.63899994	21.12400055	26.03499985
         326	1	109	3	0.0	-3.05900002	23.46699905	26.20700073
         327	1	109	4	0.0	-2.34899998	20.64900017	26.68899918
         328	1	110	1	0.0	-5.59499979	24.21299934	27.07699966
         329	1	110	3	0.0	-4.1170001	23.8560009	28.89999962
         330	1	110	4	0.0	-7.02199984	24.1760006	27.63699913
         331	1	111	1	0.0	-4.71799994	27.05200005	27.30699921
         332	1	111	3	0.0	-3.93300009	28.3390007	25.45199966
         333	1	111	4	0.0	-4.62599993	28.25300026	28.25300026
         334	1	112	1	0.0	-2.05800009	26.36700058	24.63899994
         335	1	112	3	0.0	-2.40100002	24.87000084	22.76399994
         336	1	112	4	0.0	-0.84200001	25.48800087	24.88199997
         337	1	113	1	0.0	-4.7750001	25.98500061	22.04700089
         338	1	113	3	0.0	-6.15600014	27.11000061	20.43099976
         339	1	113	4	0.0	-5.90500021	25.15500069	22.64699936
         340	1	114	1	0.0	-4.82399988	29.47100067	20.64800072
         341	1	114	3	0.0	-6.02699995	29.88800049	18.66799927
         342	1	114	4	0.0	-3.79999995	30.63500023	20.87800026
         343	1	115	1	0.0	-4.65500021	28.24099922	17.05599976
         344	1	115	3	0.0	-5.27299976	26.50499916	15.52900028
         345	1	115	4	0.0	-3.40700006	28.44000053	16.18600082
         346	1	116	1	0.0	-6.57499981	25.00699997	17.48999977
         347	1	116	3	0.0	-7.58799982	24.08699989	15.53800011
         348	1	116	4	0.0	-7.21099997	24.45000076	18.75099945
         349	1	117	1	0.0	-9.61100006	26.02700043	15.40100002
         350	1	117	3	0.0	-9.39500046	25.44799995	13.0710001
         351	1	117	4	0.0	-10.65699959	27.09600067	15.64599991
         352	1	118	1	0.0	-7.26900005	27.28700066	12.68900013
         353	1	118	3	0.0	-7.09000015	25.52700043	11.06799984
         354	1	118	4	0.0	-6.04400015	28.20899963	12.86200047
         355	1	119	1	0.0	-5.36000013	24.01799965	12.64799976
         356	1	119	3	0.0	-6.35400009	22.17300034	11.41899967
         357	1	119	4	0.0	-4.32800007	23.63299942	13.7159996
         358	1	120	1	0.0	-8.59599972	22.04700089	12.97299957
         359	1	120	3	0.0	-9.42000008	21.22900009	10.88000011
         360	1	120	4	0.0	-9.67399979	22.07699966	14.04100037
         361	1	121	1	0.0	-9.9989996	23.7670002	9.89299965
         362	1	121	3	0.0	-9.57699966	22.66799927	7.79699993
         363	1	121	4	0.0	-10.30599976	25.25399971	9.71399975
         364	1	122	1	0.0	-6.84600019	22.95400047	7.94000006
         365	1	122	3	0.0	-6.65999985	20.88899994	6.82299995
         366	1	122	4	0.0	-5.47599983	23.54400063	8.03299999
         367	1	123	1	0.0	-6.97399998	19.38100052	9.15200043
         368	1	123	3	0.0	-8.07699966	17.7310009	7.79699993
         369	1	123	4	0.0	-6.92999983	18.80699921	10.55700016
         370	1	124	1	0.0	-10.60999966	19.06100082	8.02799988
         371	1	124	3	0.0	-10.90200043	18.19799995	5.75500011
         372	1	124	4	0.0	-11.69099998	20.0189991	8.51500034
         373	1	125	1	0.0	-9.49600029	20.42000008	4.66300011
         374	1	125	3	0.0	-8.94900036	18.80699921	3.03900003
         375	1	125	4	0.0	-8.93200016	21.81500053	4.40600014
         376	1	126	1	0.0	-6.66300011	17.87700081	4.47200012
         377	1	126	3	0.0	-7.11299992	15.71500015	3.5480001
         378	1	126	4	0.0	-5.43900013	17.82099915	5.37400007
         379	1	127	1	0.0	-8.9829998	14.99699974	5.46000004
         380	1	127	3	0.0	-10.04699993	14.01200008	3.54900002
         381	1	127	4	0.0	-9.75599957	14.77000046	6.74700022
         382	1	128	1	0.0	-11.52999973	16.43099976	3.0150001
         383	1	128	3	0.0	-11.48499966	15.45499992	0.85000002
         384	1	128	4	0.0	-11.98999977	17.875	2.94199991
         385	1	129	1	0.0	-8.875	16.1590004	0.308
         386	1	129	3	0.0	-7.34200001	14.6079998	-0.59500003
         387	1	129	4	0.0	-7.96799994	17.29800034	-0.116
         388	1	130	1	0.0	-7.69299984	12.79199982	1.579
         389	1	130	3	0.0	-5.61800003	11.94400024	0.653
         390	1	130	4	0.0	-8.32600021	11.82699966	0.56599998
         391	1	131	1	0.0	-4.12900019	14.05099964	1.73300004
         392	1	131	3	0.0	-3.56500006	13.21800041	3.92600012
         393	1	131	4	0.0	-3.80800009	15.55300045	1.91199994
         394	1	132	1	0.0	-1.30200005	11.86100006	2.94799995
         395	1	132	3	0.0	-2.5710001	9.99400043	3.7579999
         396	1	132	4	0.0	-0.33500001	12.94900036	3.4920001
         397	1	133	1	0.0	-2.32999992	10.75899982	6.40799999
         398	1	133	3	0.0	-4.16800022	9.26000023	6.62400007
         399	1	133	4	0.0	-2.16300011	11.63099957	7.70699978
         400	1	134	1	0.0	-5.99100018	10.97099972	5.37799978
         401	1	134	3	0.0	-7.43300009	10.32900047	3.61899996
         402	1	134	4	0.0	-6.71500015	12.3210001	5.40799999
         403	1	135	1	0.0	-5.47100019	9.18999958	2.06200004
         404	1	135	3	0.0	-5.25400019	7.09800005	3.11800003
         405	1	135	4	0.0	-4.29400015	9.45800018	1.15499997

Bond Coeffs

           1	200.0	3.77
           2	200.0	2.41
           3	200.0	2.50
           4	200.0	1.54
           5	200.0	1.54
Bonds

           1	2	1	2
           2	4	1	3
           3	1	1	4
           4	3	2	4
           5	2	4	5
           6	4	4	6
           7	1	4	7
           8	3	5	7
           9	2	7	8
          10	4	7	9
          11	1	7	10
          12	3	8	10
          13	2	10	11
          14	4	10	12
          15	1	10	13
          16	3	11	13
          17	2	13	14
          18	4	13	15
          19	1	13	16
          20	3	14	16
          21	2	16	17
          22	4	16	18
          23	1	16	19
          24	3	17	19
          25	2	19	20
          26	4	19	21
          27	1	19	22
          28	3	20	22
          29	2	22	23
          30	4	22	24
          31	1	22	25
          32	3	23	25
          33	2	25	26
          34	4	25	27
          35	1	25	28
          36	3	26	28
          37	2	28	29
          38	4	28	30
          39	1	28	31
          40	3	29	31
          41	2	31	32
          42	4	31	33
          43	1	31	34
          44	3	32	34
          45	2	34	35
          46	4	34	36
          47	1	34	37
          48	3	35	37
          49	2	37	38
          50	4	37	39
          51	1	37	40
          52	3	38	40
          53	2	40	41
          54	5	40	42
          55	1	40	43
          56	3	41	43
          57	2	43	44
          58	4	43	45
          59	1	43	46
          60	3	44	46
          61	2	46	47
          62	4	46	48
          63	1	46	49
          64	3	47	49
          65	2	49	50
          66	4	49	51
          67	1	49	52
          68	3	50	52
          69	2	52	53
          70	4	52	54
          71	1	52	55
          72	3	53	55
          73	2	55	56
          74	4	55	57
          75	1	55	58
          76	3	56	58
          77	2	58	59
          78	4	58	60
          79	1	58	61
          80	3	59	61
          81	2	61	62
          82	4	61	63
          83	1	61	64
          84	3	62	64
          85	2	64	65
          86	4	64	66
          87	1	64	67
          88	3	65	67
          89	2	67	68
          90	5	67	69
          91	1	67	70
          92	3	68	70
          93	2	70	71
          94	4	70	72
          95	1	70	73
          96	3	71	73
          97	2	73	74
          98	4	73	75
          99	1	73	76
         100	3	74	76
         101	2	76	77
         102	4	76	78
         103	1	76	79
         104	3	77	79
         105	2	79	80
         106	4	79	81
         107	1	79	82
         108	3	80	82
         109	2	82	83
         110	4	82	84
         111	1	82	85
         112	3	83	85
         113	2	85	86
         114	4	85	87
         115	1	85	88
         116	3	86	88
         117	2	88	89
         118	4	88	90
         119	1	88	91
         120	3	89	91
         121	2	91	92
         122	4	91	93
         123	1	91	94
         124	3	92	94
         125	2	94	95
         126	4	94	96
         127	1	94	97
         128	3	95	97
         129	2	97	98
         130	4	97	99
         131	1	97	100
         132	3	98	100
         133	2	100	101
         134	4	100	102
         135	1	100	103
         136	3	101	103
         137	2	103	104
         138	4	103	105
         139	1	103	106
         140	3	104	106
         141	2	106	107
         142	4	106	108
         143	1	106	109
         144	3	107	109
         145	2	109	110
         146	4	109	111
         147	1	109	112
         148	3	110	112
         149	2	112	113
         150	4	112	114
         151	1	112	115
         152	3	113	115
         153	2	115	116
         154	4	115	117
         155	1	115	118
         156	3	116	118
         157	2	118	119
         158	4	118	120
         159	1	118	121
         160	3	119	121
         161	2	121	122
         162	4	121	123
         163	1	121	124
         164	3	122	124
         165	2	124	125
         166	4	124	126
         167	1	124	127
         168	3	125	127
         169	2	127	128
         170	4	127	129
         171	1	127	130
         172	3	128	130
         173	2	130	131
         174	5	130	132
         175	1	130	133
         176	3	131	133
         177	2	133	134
         178	4	133	135
         179	1	133	136
         180	3	134	136
         181	2	136	137
         182	4	136	138
         183	1	136	139
         184	3	137	139
         185	2	139	140
         186	4	139	141
         187	1	139	142
         188	3	140	142
         189	2	142	143
         190	4	142	144
         191	1	142	145
         192	3	143	145
         193	2	145	146
         194	5	145	147
         195	1	145	148
         196	3	146	148
         197	2	148	149
         198	4	148	150
         199	1	148	151
         200	3	149	151
         201	2	151	152
         202	4	151	153
         203	1	151	154
         204	3	152	154
         205	2	154	155
         206	4	154	156
         207	1	154	157
         208	3	155	157
         209	2	157	158
         210	4	157	159
         211	1	157	160
         212	3	158	160
         213	2	160	161
         214	4	160	162
         215	1	160	163
         216	3	161	163
         217	2	163	164
         218	4	163	165
         219	1	163	166
         220	3	164	166
         221	2	166	167
         222	4	166	168
         223	1	166	169
         224	3	167	169
         225	2	169	170
         226	4	169	171
         227	1	169	172
         228	3	170	172
         229	2	172	173
         230	4	172	174
         231	1	172	175
         232	3	173	175
         233	2	175	176
         234	4	175	177
         235	1	175	178
         236	3	176	178
         237	2	178	179
         238	4	178	180
         239	1	178	181
         240	3	179	181
         241	2	181	182
         242	4	181	183
         243	1	181	184
         244	3	182	184
         245	2	184	185
         246	4	184	186
         247	1	184	187
         248	3	185	187
         249	2	187	188
         250	4	187	189
         251	1	187	190
         252	3	188	190
         253	2	190	191
         254	4	190	192
         255	1	190	193
         256	3	191	193
         257	2	193	194