ITEM: TIMESTEP
0
ITEM: NUMBER OF ATOMS
405
ITEM: BOX BOUNDS ss ss ss
-12.03 22.418
0.937 38.744
-0.635 30.842
ITEM: ATOMS id type xs ys zs
1 1 0.374855 0.929087 0.6994
2 3 0.383244 0.975058 0.647838
3 4 0.363475 0.895522 0.675827
4 1 0.461362 0.963155 0.638085
5 3 0.506096 0.914963 0.647552
6 4 0.476051 0.998942 0.653874
7 1 0.537941 0.927024 0.564952
8 3 0.583604 0.973576 0.586523
9 4 0.535067 0.929246 0.516949
10 1 0.643405 0.925146 0.597802
11 3 0.660358 0.875446 0.55485
12 4 0.65342 0.912344 0.641802
13 1 0.726631 0.906472 0.523493
14 3 0.751161 0.873595 0.584586
15 4 0.750987 0.93689 0.507799
16 1 0.778971 0.819002 0.531404
17 3 0.791512 0.822731 0.455475
18 4 0.754006 0.788161 0.545446
19 1 0.856189 0.778639 0.461512
20 3 0.862169 0.723755 0.496458
21 4 0.898688 0.793028 0.470979
22 1 0.850702 0.684424 0.421927
23 3 0.921389 0.68408 0.419259
24 4 0.840629 0.67633 0.376148
25 1 0.92792 0.624302 0.46634
26 3 0.947631 0.580845 0.412555
27 4 0.934423 0.616129 0.513772
28 1 0.88458 0.538207 0.428249
29 3 0.827856 0.526146 0.469962
30 4 0.911809 0.512233 0.450265
31 1 0.787186 0.498929 0.401404
32 3 0.821151 0.444865 0.396448
33 4 0.765937 0.502685 0.360136
34 1 0.779726 0.41241 0.462814
35 3 0.762192 0.361494 0.42018
36 4 0.77421 0.40757 0.511485
37 1 0.684887 0.380115 0.416431
38 3 0.663725 0.439416 0.403882
39 4 0.67136 0.345835 0.43562
40 1 0.589091 0.41741 0.378912
41 3 0.565258 0.473087 0.400356
42 5 0.620878 0.394715 0.321458
43 1 0.560729 0.457958 0.484703
44 3 0.576869 0.489592 0.546621
45 4 0.523078 0.441849 0.502875
46 1 0.655336 0.46748 0.545255
47 3 0.706921 0.464861 0.494869
48 4 0.66657 0.433809 0.572164
49 1 0.734992 0.531462 0.517362
50 3 0.745791 0.556722 0.587191
51 4 0.719287 0.557648 0.484163
52 1 0.82536 0.568017 0.568224
53 3 0.840484 0.609199 0.512628
54 4 0.864375 0.549819 0.570353
55 1 0.827798 0.667707 0.56419
56 3 0.853315 0.676938 0.634114
57 4 0.787941 0.685085 0.563713
58 1 0.893608 0.738805 0.606538
59 3 0.845709 0.784775 0.592782
60 4 0.925801 0.757399 0.58287
61 1 0.823212 0.789483 0.676494
62 3 0.85407 0.794959 0.744258
63 4 0.785735 0.769276 0.687645
64 1 0.860921 0.870712 0.734695
65 3 0.915902 0.860449 0.780506
66 4 0.838365 0.875023 0.775709
67 1 0.962755 0.840479 0.710487
68 3 0.998839 0.798609 0.752327
69 5 0.922405 0.796401 0.651858
70 1 0.939242 0.750813 0.758586
71 3 0.890269 0.725606 0.714045
72 4 0.918747 0.755971 0.800966
73 1 0.932333 0.664374 0.698669
74 3 0.90461 0.643664 0.764908
75 4 0.966965 0.639829 0.695587
76 1 0.83343 0.626789 0.725069
77 3 0.809278 0.611051 0.657146
78 4 0.804952 0.656466 0.735362
79 1 0.772265 0.551168 0.684563
80 3 0.716849 0.572249 0.725577
81 4 0.780423 0.510884 0.685103
82 1 0.671737 0.582723 0.653684
83 3 0.6585 0.531886 0.611875
84 4 0.665989 0.615256 0.626616
85 1 0.582908 0.525538 0.642882
86 3 0.537477 0.572487 0.649776
87 4 0.57298 0.502076 0.680433
88 1 0.50299 0.55905 0.570258
89 3 0.455585 0.523527 0.605077
90 4 0.499303 0.546698 0.52397
91 1 0.412999 0.582961 0.63459
92 3 0.381154 0.575026 0.566604
93 4 0.401184 0.621102 0.646218
94 1 0.318364 0.536991 0.60908
95 3 0.290815 0.504351 0.55396
96 4 0.292441 0.568704 0.596372
97 1 0.357495 0.474066 0.52648
98 3 0.400052 0.442405 0.57318
99 4 0.37529 0.491364 0.486641
100 1 0.397149 0.382099 0.51895
101 3 0.380632 0.357315 0.4516
102 4 0.377003 0.353427 0.545255
103 1 0.457501 0.355093 0.423547
104 3 0.474803 0.31145 0.473965
105 4 0.49463 0.372894 0.404549
106 1 0.473641 0.256117 0.414112
107 3 0.542876 0.272383 0.418051
108 4 0.464933 0.237416 0.372431
109 1 0.555823 0.218769 0.478794
110 3 0.569322 0.178988 0.421451
111 4 0.54784 0.190467 0.512596
112 1 0.649356 0.19425 0.423071
113 3 0.708749 0.162351 0.43689
114 4 0.667063 0.222816 0.392001
115 1 0.706369 0.180707 0.523811
116 3 0.709678 0.120771 0.549099
117 4 0.715165 0.213479 0.551387
118 1 0.664044 0.136932 0.620675
119 3 0.623665 0.0935806 0.585062
120 4 0.633215 0.154866 0.649109
121 1 0.669705 0.0366334 0.615402
122 3 0.612634 0.00105801 0.603393
123 4 0.701782 0.0183035 0.640881
124 1 0.575418 0.0263443 0.676081
125 3 0.512076 0.0240961 0.645455
126 4 0.566825 0.039781 0.720304
127 1 0.52871 0.0725263 0.581758
128 3 0.516227 0.0501759 0.51158
129 4 0.522585 0.112122 0.581377
130 1 0.596958 0.0481392 0.491152
131 3 0.575912 0.106224 0.470788
132 5 0.579163 0.0134074 0.442556
133 1 0.608424 0.0998228 0.388061
134 3 0.558204 0.0708334 0.350002
135 4 0.637715 0.0925226 0.35248
136 1 0.503251 0.12257 0.36703
137 3 0.524443 0.157458 0.307177
138 4 0.478228 0.141297 0.39953
139 1 0.455382 0.141984 0.261651
140 3 0.434307 0.198006 0.290688
141 4 0.418283 0.125559 0.244369
142 1 0.475499 0.235935 0.226737
143 3 0.51405 0.283757 0.254821
144 4 0.4339 0.25043 0.232201
145 1 0.550569 0.241093 0.314452
146 3 0.586885 0.292724 0.296502
147 5 0.521046 0.222543 0.340564
148 1 0.629325 0.255905 0.231757
149 3 0.641402 0.312905 0.201925
150 4 0.639892 0.224747 0.203196
151 1 0.566129 0.315682 0.16431
152 3 0.57298 0.377311 0.177304
153 4 0.526417 0.307086 0.146456
154 1 0.540728 0.374216 0.259269
155 3 0.582791 0.423599 0.272135
156 4 0.518346 0.36115 0.297805
157 1 0.646917 0.38358 0.288782
158 3 0.682304 0.430846 0.257998
159 4 0.676643 0.355437 0.299647
160 1 0.676411 0.405639 0.175303
161 3 0.677659 0.467559 0.158751
162 4 0.669647 0.38276 0.13629
163 1 0.59629 0.473219 0.169489
164 3 0.62111 0.531277 0.18747
165 4 0.553704 0.463856 0.174095
166 1 0.622533 0.519692 0.273152
167 3 0.673508 0.562647 0.262859
168 4 0.622213 0.50078 0.318074
169 1 0.728547 0.51144 0.245449
170 3 0.751655 0.566086 0.217715
171 4 0.750697 0.478086 0.233822
172 1 0.715078 0.551829 0.136163
173 3 0.718968 0.615362 0.132605
174 4 0.689271 0.537202 0.10109
175 1 0.647382 0.624197 0.173333
176 3 0.677514 0.67916 0.196683
177 4 0.609295 0.616394 0.196652
178 1 0.715223 0.649906 0.261874
179 3 0.769188 0.688418 0.2505
180 4 0.718764 0.630201 0.30365
181 1 0.809858 0.642579 0.201449
182 3 0.837494 0.690719 0.166471
183 4 0.828379 0.609755 0.182482
184 1 0.773049 0.698363 0.109286
185 3 0.750029 0.757373 0.0992153
186 4 0.747794 0.682281 0.0737046
187 1 0.731799 0.768667 0.182895
188 3 0.797231 0.790118 0.19878
189 4 0.710056 0.762689 0.224354
190 1 0.774965 0.860079 0.187184
191 3 0.799669 0.876954 0.256378
192 4 0.762889 0.892877 0.163389
193 1 0.725877 0.874706 0.293707
194 3 0.673827 0.8322 0.302221
195 4 0.700563 0.908218 0.292595
196 1 0.700621 0.810538 0.381135
197 3 0.710985 0.852461 0.43867
198 4 0.724541 0.777898 0.396226
199 1 0.634957 0.841722 0.469835
200 3 0.595303 0.789854 0.476634
201 4 0.607234 0.871294 0.460273
202 1 0.600441 0.794826 0.568224
203 3 0.573908 0.850345 0.595546
204 4 0.630632 0.779697 0.598469
205 1 0.504209 0.818975 0.615751
206 3 0.467981 0.769064 0.642056
207 4 0.471493 0.825826 0.584522
208 1 0.485224 0.785516 0.72688
209 3 0.427427 0.81924 0.715888
210 4 0.508012 0.795726 0.766178
211 1 0.381648 0.771921 0.761508
212 3 0.408674 0.804507 0.820631
213 4 0.358018 0.738726 0.755377
214 1 0.335259 0.807046 0.862503
215 3 0.343358 0.798344 0.936398
216 4 0.292209 0.817997 0.865076
217 1 0.357815 0.726003 0.930394
218 3 0.425279 0.743064 0.926359
219 5 0.349657 0.659858 0.904561
220 1 0.45007 0.674134 0.951552
221 3 0.456079 0.670088 0.874829
222 4 0.452944 0.635173 0.963338
223 1 0.532658 0.69294 0.875814
224 3 0.580469 0.661888 0.837913
225 4 0.558175 0.725395 0.877784
226 1 0.581543 0.604571 0.89405
227 3 0.531874 0.579972 0.935381
228 4 0.620326 0.607771 0.920005
229 1 0.545286 0.509535 0.903231
230 3 0.604389 0.507419 0.945643
231 4 0.534429 0.486735 0.865711
232 1 0.583546 0.44386 0.985259
233 3 0.649733 0.426508 0.997427
234 4 0.562268 0.410294 0.998729
235 1 0.667905 0.423149 0.911173
236 3 0.726254 0.453117 0.890396
237 4 0.661432 0.404713 0.868348
238 1 0.700592 0.51837 0.915653
239 3 0.724803 0.556326 0.861804
240 5 0.677253 0.506076 0.883401
241 1 0.672724 0.535192 0.800362
242 3 0.614637 0.56635 0.819646
243 4 0.657397 0.511175 0.766687
244 1 0.634086 0.627662 0.776567
245 3 0.601689 0.594678 0.721384
246 5 0.657977 0.623736 0.741985
247 1 0.528594 0.622901 0.742352
248 3 0.506444 0.683339 0.742447
249 4 0.498549 0.612135 0.775995
250 1 0.50778 0.688312 0.655018
251 3 0.488098 0.647737 0.599231
252 4 0.546795 0.706986 0.646822
253 1 0.46052 0.707435 0.550592
254 3 0.513934 0.747798 0.543413
255 4 0.427078 0.733198 0.545478
256 1 0.545924 0.715211 0.475903
257 3 0.513179 0.710186 0.410585
258 4 0.577856 0.686804 0.478222
259 1 0.542818 0.774513 0.379388
260 3 0.609702 0.785542 0.368047
261 4 0.528797 0.812733 0.386377
262 1 0.606537 0.767768 0.281444
263 3 0.560729 0.788769 0.229977
264 4 0.61513 0.732298 0.262732
265 1 0.601138 0.855 0.22213
266 3 0.537419 0.865951 0.19519
267 4 0.613127 0.849922 0.176033
268 1 0.50717 0.874256 0.278521
269 3 0.443045 0.852673 0.277472
270 5 0.546621 0.843303 0.278371
271 1 0.463801 0.784828 0.250024
272 3 0.500377 0.748777 0.298154
273 4 0.471116 0.763615 0.210249
274 1 0.436629 0.730658 0.347397
275 3 0.421389 0.675616 0.312387
276 4 0.399559 0.732695 0.373066
277 1 0.488127 0.643161 0.335801
278 3 0.449286 0.591689 0.332465
279 4 0.528507 0.632132 0.351844
280 1 0.41538 0.601873 0.411126
281 3 0.367714 0.566139 0.375036
282 4 0.402984 0.61314 0.454808
283 1 0.332124 0.625096 0.336023
284 3 0.320657 0.587246 0.276424
285 4 0.315838 0.661835 0.32789
286 1 0.391576 0.60584 0.237475
287 3 0.373432 0.548549 0.208756
288 4 0.432013 0.619436 0.230041
289 1 0.405248 0.51017 0.273914
290 3 0.357234 0.466686 0.25695
291 4 0.427688 0.500965 0.314198
292 1 0.299582 0.499061 0.305938
293 3 0.258448 0.476261 0.249833
294 4 0.279465 0.520724 0.341615
295 1 0.263644 0.539345 0.203641
296 3 0.250348 0.503029 0.144201
297 4 0.271511 0.57693 0.188392
298 1 0.325128 0.471791 0.142549
299 3 0.329134 0.409236 0.133304
300 4 0.369542 0.473881 0.137275
301 1 0.287274 0.39207 0.203228
302 3 0.327944 0.342688 0.215522
303 5 0.295663 0.34084 0.194086
304 1 0.388818 0.382495 0.25104
305 3 0.41837 0.370593 0.320011
306 4 0.422173 0.401963 0.229882
307 1 0.357902 0.398551 0.364552
308 3 0.290728 0.409554 0.34781
309 4 0.378832 0.430396 0.382502
310 1 0.267156 0.386198 0.429202
311 3 0.298101 0.419526 0.485275
312 4 0.251974 0.350385 0.439845
313 1 0.23087 0.454255 0.507926
314 3 0.204598 0.408734 0.552403
315 4 0.195512 0.477848 0.504051
316 1 0.263876 0.411141 0.61124
317 3 0.288638 0.464306 0.643772
318 4 0.290554 0.379983 0.601201
319 1 0.291541 0.432274 0.724815
320 3 0.299553 0.493956 0.742765
321 4 0.336536 0.432433 0.72113
322 1 0.22068 0.507393 0.73352
323 3 0.187993 0.498426 0.799917
324 4 0.18213 0.510144 0.709375
325 1 0.243585 0.533949 0.847285
326 3 0.260421 0.595921 0.85275
327 4 0.281032 0.521385 0.868062
328 1 0.186803 0.615653 0.880389
329 3 0.229709 0.606211 0.938304
330 4 0.145379 0.614675 0.89818
331 1 0.212262 0.690745 0.887696
332 3 0.23505 0.724786 0.828764
333 4 0.214933 0.722512 0.917749
334 1 0.28948 0.672627 0.802935
335 3 0.279523 0.633031 0.743368
336 4 0.324779 0.649377 0.810655
337 1 0.210607 0.662523 0.72059
338 3 0.170518 0.692279 0.669251
339 4 0.177804 0.640569 0.739651
340 1 0.209185 0.754728 0.676145
341 3 0.174263 0.765758 0.613241
342 4 0.238911 0.785516 0.683451
343 1 0.214091 0.722194 0.562029
344 3 0.196151 0.676277 0.513518
345 4 0.250319 0.727458 0.53439
346 1 0.158355 0.636655 0.575817
347 3 0.128948 0.61232 0.513804
348 4 0.139892 0.621922 0.615878
349 1 0.0702218 0.663634 0.509451
350 3 0.0764921 0.648319 0.435429
351 4 0.0398572 0.691909 0.517235
352 1 0.138208 0.696961 0.423293
353 3 0.143405 0.650409 0.371795
354 4 0.173769 0.721348 0.428789
355 1 0.193625 0.610495 0.421991
356 3 0.16477 0.561695 0.382946
357 4 0.223583 0.600312 0.45592
358 1 0.0996865 0.558362 0.432316
359 3 0.0757664 0.536726 0.365823
360 4 0.0683929 0.559156 0.466245
361 1 0.0589584 0.603856 0.334466
362 3 0.0712088 0.574788 0.267878
363 4 0.0500464 0.643188 0.32878
364 1 0.150488 0.582353 0.272421
365 3 0.155887 0.527733 0.236935
366 4 0.190258 0.597958 0.275376
367 1 0.146772 0.487846 0.310925
368 3 0.114753 0.444203 0.267878
369 4 0.148049 0.472664 0.355561
370 1 0.0412216 0.479382 0.275217
371 3 0.032745 0.456556 0.203005
372 4 0.00984091 0.504721 0.290688
373 1 0.0735601 0.515328 0.168313
374 3 0.0894391 0.472664 0.11672
375 4 0.0899326 0.552226 0.160149
376 1 0.1558 0.448065 0.162245
377 3 0.142737 0.39088 0.132891
378 4 0.191332 0.446584 0.190901
379 1 0.0884522 0.371889 0.193633
380 3 0.057565 0.345835 0.132922
381 4 0.0660125 0.365885 0.23452
382 1 0.0145146 0.409818 0.115958
383 3 0.015821 0.384003 0.0471773
384 4 0.00116117 0.448012 0.113639
385 1 0.0915873 0.402624 0.0299584
386 3 0.136089 0.3616 0.00127077
387 4 0.117917 0.432751 0.0164882
388 1 0.1259 0.313566 0.0703371
389 3 0.186136 0.291137 0.0409188
390 4 0.107524 0.288042 0.0381548
391 1 0.22936 0.346867 0.0752295
392 3 0.245733 0.324834 0.144899
393 4 0.238679 0.386595 0.0809162
394 1 0.311426 0.288941 0.113829
395 3 0.274588 0.239559 0.139562
396 4 0.339497 0.317719 0.131112
397 1 0.281584 0.259793 0.223751
398 3 0.228228 0.220144 0.230613
399 4 0.286432 0.282858 0.265019
400 1 0.175308 0.265401 0.191028
401 3 0.133448 0.24842 0.135146
402 4 0.154291 0.301108 0.191981
403 1 0.190403 0.218293 0.0856816
404 3 0.196702 0.162959 0.11923
405 4 0.22457 0.225382 0.0568669
