LAMMPS protain data file

         387  atoms
         514  bonds
           0  angles
           0  dihedrals
           0  impropers

           5  atom types
           5  bond types
           0  angle types
           0  dihedral types
           0  improper types

-200.0	200.0	xlo xhi
-200.0	200.0	ylo yhi
-200.0	200.0	zlo zhi

Masses

           1	27.0
           2	14.0
           3	28.0
           4	60.0
           5	60.0

Atoms

           1	1	1	1	0.0	25.40800095	20.19499969	26.92200089
           2	1	1	3	0.0	23.54199982	18.68899918	26.99300003
           3	1	1	4	0.0	26.5890007	19.50799942	27.5189991
           4	1	2	1	0.0	23.9489994	17.68600082	24.54000092
           5	1	2	3	0.0	26.05900002	16.6060009	23.95400047
           6	1	2	4	0.0	23.20100021	18.09499931	23.1420002
           7	1	3	1	0.0	25.21699905	14.23999977	25.21699905
           8	1	3	3	0.0	24.16600037	13.43700027	23.24399948
           9	1	3	4	0.0	24.63999939	13.40400028	26.32900047
          10	1	4	1	0.0	26.08399963	11.6619997	22.58300018
          11	1	4	3	0.0	25.33699989	10.31000042	24.43700027
          12	1	4	5	0.0	26.22699928	10.66802117	19.81257842
          13	1	5	1	0.0	24.05200005	8.38599968	22.97400093
          14	1	5	3	0.0	24.50399971	7.21999979	24.97200012
          15	1	5	4	0.0	23.50600052	7.54899979	21.79299927
          16	1	6	1	0.0	26.90299988	6.14599991	24.13100052
          17	1	6	3	0.0	27.88699913	6.30499983	26.29199982
          18	1	6	4	0.0	27.97299957	5.46999979	23.27300072
          19	1	7	1	0.0	28.41300011	9.00699997	26.14699936
          20	1	7	3	0.0	27.85099983	8.89799976	28.49500084
          21	1	7	4	0.0	28.67900085	10.35599995	25.53899956
          22	1	8	1	0.0	25.09799957	9.26299953	28.10099983
          23	1	8	3	0.0	24.84799957	7.72100019	29.94000053
          24	1	8	4	0.0	23.75399971	9.61299992	27.47400093
          25	1	9	1	0.0	24.76399994	5.44799995	28.41900063
          26	1	9	3	0.0	25.58799934	4.56699991	30.51000023
          27	1	9	4	0.0	24.86199951	4.46099997	27.26300049
          28	1	10	1	0.0	28.18199921	5.25199986	30.05400085
          29	1	10	3	0.0	28.26099968	5.5079999	32.43799973
          30	1	10	4	0.0	29.49500084	5.52899981	29.31599998
          31	1	11	1	0.0	27.46699905	8.16300011	32.41999817
          32	1	11	3	0.0	26.50600052	7.48400021	34.50799942
          33	1	11	4	0.0	27.04500008	9.55000019	31.98999977
          34	1	12	1	0.0	24.17000008	6.49399996	33.39899826
          35	1	12	3	0.0	24.10700035	4.83799982	35.15200043
          36	1	12	4	0.0	22.97800064	6.27699995	32.47999954
          37	1	13	1	0.0	25.76799965	3.10299993	33.88700104
          38	1	13	3	0.0	26.38299942	2.69400001	36.13399887
          39	1	13	4	0.0	26.59600067	2.31999993	32.90499878
          40	1	14	1	0.0	28.35899925	4.53399992	36.23600006
          41	1	14	3	0.0	28.05900002	5.08400011	38.54399872
          42	1	14	4	0.0	29.48900032	5.49399996	35.89099884
          43	1	15	1	0.0	25.54199982	6.08300018	38.29899979
          44	1	15	3	0.0	23.58600044	5.43200016	39.50600052
          45	1	15	4	0.0	24.93799973	7.42199993	37.84000015
          46	1	16	1	0.0	23.74300003	2.78299999	38.90399933
          47	1	16	3	0.0	21.49900055	1.98300004	38.89699936
          48	1	16	5	0.0	24.5890007	1.74261238	37.37214819
          49	1	17	1	0.0	20.84000015	2.89400005	36.45000076
          50	1	17	3	0.0	19.38599968	1.21300006	35.47999954
          51	1	17	4	0.0	20.61599922	4.0630002	35.5340004
          52	1	18	1	0.0	21.37000084	-0.472	34.72700119
          53	1	18	3	0.0	21.15099907	-1.73399997	36.77999878
          54	1	18	4	0.0	22.66699982	-1.06799996	34.28699875
          55	1	19	1	0.0	18.60199928	-2.67199993	35.98799896
          56	1	19	3	0.0	17.55200005	-2.83500004	38.13700104
          57	1	19	4	0.0	19.27700043	-4.0170002	36.28499985
          58	1	20	1	0.0	17.37599945	-0.175	38.55500031
          59	1	20	3	0.0	15.2130003	-0.122	37.48600006
          60	1	20	4	0.0	17.67300034	1.29200006	38.54499817
          61	1	21	1	0.0	13.94999981	-1.454	39.66500092
          62	1	21	3	0.0	12.23999977	-2.05299997	38.04499817
          63	1	21	4	0.0	13.04599953	-0.27200001	39.96099854
          64	1	22	1	0.0	13.96399975	-3.86299992	36.86999893
          65	1	22	3	0.0	13.75599957	-3.89599991	34.53699875
          66	1	22	5	0.0	14.32199955	-4.8754843	34.36945358
          67	1	23	1	0.0	14.61699963	-1.39499998	34.05199814
          68	1	23	3	0.0	16.95599937	-0.91900003	34.14500046
          69	1	23	4	0.0	14.11699963	0.044	34.14699936
          70	1	24	1	0.0	17.64699936	-2.13899994	31.84900093
          71	1	24	3	0.0	17.20199966	0.12	31.10899925
          72	1	24	4	0.0	17.73699951	-3.1500001	30.7159996
          73	1	25	1	0.0	19.97599983	0.68800002	30.83200073
          74	1	25	3	0.0	19.11100006	2.55599999	29.6420002
          75	1	25	4	0.0	21.47900009	0.54799998	30.5510006
          76	1	26	1	0.0	18.46999931	1.19500005	27.31999969
          77	1	26	3	0.0	16.8409996	2.93799996	26.86000061
          78	1	26	5	0.0	19.03800011	1.20247301	24.28793924
          79	1	27	1	0.0	15.15999985	2.33599997	28.95199966
          80	1	27	3	0.0	14.72599983	4.69299984	28.8409996
          81	1	27	4	0.0	14.47399998	1.74399996	30.17200089
          82	1	28	1	0.0	16.84399986	5.32600021	30.52499962
          83	1	28	3	0.0	17.15600014	7.37599993	29.34499931
          84	1	28	4	0.0	17.83699989	5.14599991	31.69400024
          85	1	29	1	0.0	18.77899933	6.2329998	27.38299942
          86	1	29	3	0.0	17.5890007	7.73600006	25.96299934
          87	1	29	4	0.0	19.81699944	5.35300016	26.60199928
          88	1	30	1	0.0	15.61699963	5.98199987	25.25
          89	1	30	3	0.0	14.34899998	8.04599953	25.17200089
          90	1	30	4	0.0	14.83399963	4.69899988	25.06399918
          91	1	31	1	0.0	13.70199966	8.07999992	27.85400009
          92	1	31	3	0.0	13.64099979	10.3920002	27.37400055
          93	1	31	4	0.0	13.55200005	7.76399994	29.33799934
          94	1	32	1	0.0	16.33799934	10.84000015	27.75300026
          95	1	32	3	0.0	16.19199944	12.5369997	26.06200027
          96	1	32	4	0.0	17.79400063	10.68299961	28.16399956
          97	1	33	1	0.0	16.31800079	10.8380003	23.91799927
          98	1	33	3	0.0	14.94400024	12.61299992	23.15699959
          99	1	33	4	0.0	16.51399994	9.60900021	23.02599907
         100	1	34	1	0.0	12.58600044	11.39400005	23.61100006
         101	1	34	3	0.0	11.24699974	13.26799965	24.10700035
         102	1	34	4	0.0	11.51200008	10.26599979	23.51300049
         103	1	35	1	0.0	12.31700039	13.68400002	26.58300018
         104	1	35	3	0.0	12.48600006	16.04100037	26.24200058
         105	1	35	4	0.0	12.66699982	13.38099957	28.07999992
         106	1	36	1	0.0	15.14299965	16.12299919	25.69499969
         107	1	36	3	0.0	16.83200073	17.06399918	24.3239994
         108	1	36	4	0.0	15.93400002	16.28899956	26.97699928
         109	1	37	1	0.0	17.1760006	14.81799984	22.70700073
         110	1	37	3	0.0	19.50499916	15.44799995	22.61700058
         111	1	37	4	0.0	16.94199944	15.83100033	21.51300049
         112	1	38	1	0.0	20.02300072	14.40600014	25.20199966
         113	1	38	3	0.0	21.81500053	15.9460001	25.84000015
         114	1	38	4	0.0	21.09499931	13.62199974	24.39500046
         115	1	39	1	0.0	20.13599968	18.15999985	25.9829998
         116	1	39	3	0.0	18.63999939	18.54400063	27.87400055
         117	1	39	4	0.0	19.35499954	19.10000038	25.06500053
         118	1	40	1	0.0	20.80699921	19.01300049	29.62400055
         119	1	40	3	0.0	19.54899979	20.58300018	31.00399971
         120	1	40	4	0.0	22.32799911	18.91500092	29.80500031
         121	1	41	1	0.0	19.31999969	22.47599983	29.03499985
         122	1	41	3	0.0	17.25	23.55200005	28.67399979
         123	1	41	4	0.0	19.98699951	23.54700089	28.21199989
         124	1	42	1	0.0	15.91499996	21.34799957	27.85099983
         125	1	42	3	0.0	15.16100025	21.36300087	30.12400055
         126	1	42	4	0.0	15.52999973	19.96500015	27.40999985
         127	1	43	1	0.0	12.96800041	22.93499947	29.67399979
         128	1	43	3	0.0	11.64999962	23.4810009	27.75300026
         129	1	43	4	0.0	13.24800014	24.29599953	30.40200043
         130	1	44	1	0.0	9.26299953	22.84700012	28.90299988
         131	1	44	3	0.0	8.34799957	22.7329998	31.10099983
         132	1	44	4	0.0	8.8039999	21.52300072	28.25499916
         133	1	45	1	0.0	6.56400013	24.70299911	30.77899933
         134	1	45	3	0.0	5.01399994	23.41200066	29.55900002
         135	1	45	4	0.0	6.15700006	26.15600014	30.61000061
         136	1	46	1	0.0	3.48600006	22.87400055	31.90800095
         137	1	46	3	0.0	2.39299989	24.80400085	32.86299896
         138	1	46	4	0.0	3.49099994	21.86300087	33.04299927
         139	1	47	1	0.0	-0.18000001	23.76300049	31.8939991
         140	1	47	3	0.0	-1.17299998	25.37999916	33.4469986
         141	1	47	4	0.0	-1.09500003	22.55500031	31.52599907
         142	1	48	1	0.0	-0.243	24.0340004	35.70899963
         143	1	48	3	0.0	0.82099998	25.09399986	37.60499954
         144	1	48	4	0.0	-0.29499999	22.73999977	36.49700165
         145	1	49	1	0.0	2.55500007	26.5529995	36.16500092
         146	1	49	3	0.0	4.79099989	26.63999939	36.95199966
         147	1	49	5	0.0	1.61899996	26.14004623	34.16284304
         148	1	50	1	0.0	5.26399994	23.95899963	36.80199814
         149	1	50	3	0.0	5.53499985	24.20100021	34.40100098
         150	1	50	4	0.0	4.98500013	22.57099915	37.39400101
         151	1	51	1	0.0	8.20499992	23.40800095	34.43899918
         152	1	51	3	0.0	9.11999989	21.56500053	35.6570015
         153	1	51	4	0.0	9.18599987	24.60300064	34.4469986
         154	1	52	1	0.0	10.04100037	20.26300049	33.32899857
         155	1	52	3	0.0	11.72700024	21.41900063	32.06000137
         156	1	52	4	0.0	9.53800011	19.42000008	32.22700119
         157	1	53	1	0.0	13.81799984	20.52199936	33.58100128
         158	1	53	3	0.0	14.68799973	18.32799911	33.82600021
         159	1	53	4	0.0	14.36200047	21.10700035	34.88100052
         160	1	54	1	0.0	16.8579998	18.8390007	32.10900116
         161	1	54	3	0.0	15.59000015	17.49300003	30.53700066
         162	1	54	5	0.0	15.71899986	17.57042882	30.43013458
         163	1	55	1	0.0	17.70499992	15.66300011	30.28499985
         164	1	55	3	0.0	16.07799911	14.08899975	29.47100067
         165	1	55	4	0.0	19.11000061	15.00599957	30.45700073
         166	1	56	1	0.0	14.84799957	13.69400024	31.86700058
         167	1	56	3	0.0	12.63599968	13.89400005	32.72000122
         168	1	56	4	0.0	15.17800045	12.67599964	32.98799896
         169	1	57	1	0.0	12.36400032	16.56299973	32.13499832
         170	1	57	3	0.0	10.36200047	16.06599998	33.43799973
         171	1	57	4	0.0	11.5340004	16.24600029	30.88500023
         172	1	58	1	0.0	11.75399971	16.38999939	35.81700134
         173	1	58	3	0.0	11.50500011	18.76499939	36.07400131
         174	1	58	4	0.0	12.97299957	16.06399918	36.73799896
         175	1	59	1	0.0	8.94099998	18.66500092	36.93799973
         176	1	59	3	0.0	9.25800037	18.60700035	39.36199951
         177	1	59	4	0.0	7.47700024	18.3579998	36.60200119
         178	1	60	1	0.0	8.85000038	21.36700058	39.64799881
         179	1	60	3	0.0	7.53999996	21.97900009	41.54499817
         180	1	60	4	0.0	9.16499996	22.80800056	39.29700089
         181	1	61	1	0.0	5.37699986	20.47299957	40.98300171
         182	1	61	3	0.0	5.44500017	19.74300003	43.29000092
         183	1	61	4	0.0	4.21799994	19.94000053	40.15499878
         184	1	62	1	0.0	6.63199997	17.3560009	42.76399994
         185	1	62	3	0.0	8.34000015	16.88299942	44.29399872
         186	1	62	4	0.0	6.21000004	15.93799973	42.38299942
         187	1	63	1	0.0	10.33899975	16.8920002	42.41699982
         188	1	63	3	0.0	12.26500034	17.53800011	43.52099991
         189	1	63	4	0.0	10.76299953	16.07699966	41.15100098
         190	1	64	1	0.0	12.49800014	20.02000046	42.52700043
         191	1	64	3	0.0	10.70400047	21.58200073	42.36299896
         192	1	64	4	0.0	13.50500011	20.06800079	41.35200119
         193	1	65	1	0.0	12.04199982	23.59799957	43.63700104
         194	1	65	3	0.0	13.97099972	24.72500038	42.74700165
         195	1	65	4	0.0	12.26500034	23.97800064	45.09400177
         196	1	66	1	0.0	12.60099983	26.36400032	41.01699829
         197	1	66	3	0.0	12.6260004	28.74399948	40.77299881
         198	1	66	4	0.0	12.10200024	26.20499992	39.58200073
         199	1	67	1	0.0	11.41800022	29.29000092	43.17499924
         200	1	67	3	0.0	9.46399975	30.64299965	43.25099945
         201	1	67	5	0.0	11.68299961	28.32577558	41.29171699
         202	1	68	1	0.0	8.48600006	30.04700089	40.88299942
         203	1	68	3	0.0	6.34000015	29.42099953	40.16799927
         204	1	68	4	0.0	8.82499981	30.62599945	39.48600006
         205	1	69	1	0.0	6.1420002	27.02799988	41.26599884
         206	1	69	3	0.0	6.03100014	26.5720005	43.59199905
         207	1	69	4	0.0	6.58599997	25.61100006	40.95899963
         208	1	70	1	0.0	3.58400011	27.60700035	44.06200027
         209	1	70	3	0.0	2.84599996	25.34300041	43.77099991
         210	1	70	4	0.0	2.32200003	28.37400055	43.84799957
         211	1	71	1	0.0	3.51300001	24.58699989	46.34500122
         212	1	71	3	0.0	3.898	22.27599907	45.96300125
         213	1	71	5	0.0	3.78900003	22.51360589	44.28483801
         214	1	72	1	0.0	6.41699982	22.61400032	44.85900116
         215	1	72	3	0.0	6.8829999	22.22400093	47.20299911
         216	1	72	4	0.0	7.68100023	23.23800087	44.38999939
         217	1	73	1	0.0	6.75400019	19.46299934	47.02899933
         218	1	73	3	0.0	8.76399994	18.75499916	48.19300079
         219	1	73	4	0.0	5.99499989	18.15200043	46.79399872
         220	1	74	1	0.0	10.49300003	19.23999977	46.13199997
         221	1	74	3	0.0	11.83300018	17.87100029	47.61000061
         222	1	74	4	0.0	11.13700008	20.40800095	46.86199951
         223	1	75	1	0.0	10.67199993	15.51000023	46.88100052
         224	1	75	3	0.0	12.6590004	14.27700043	47.38499832
         225	1	75	4	0.0	9.73600006	14.47000027	46.31399918
         226	1	76	1	0.0	14.17500019	15.22200012	45.39500046
         227	1	76	3	0.0	16.36100006	15.87100029	46.13700104
         228	1	76	4	0.0	14.55799961	15.33199978	43.91400146
         229	1	77	1	0.0	15.43299961	18.02700043	47.69100189
         230	1	77	3	0.0	17.74799919	18.55699921	47.2879982
         231	1	77	4	0.0	16.00600052	17.2859993	48.93799973
         232	1	78	1	0.0	17.18400002	19.87599945	44.95399857
         233	1	78	3	0.0	15.36999989	21.16900063	44.02500153
         234	1	78	4	0.0	17.52899933	18.6970005	43.95500183
         235	1	79	1	0.0	16.88199997	23.28499985	43.19499969
         236	1	79	3	0.0	17.58499908	21.93600082	41.34999847
         237	1	79	4	0.0	17.93499947	24.36100006	43.33800125
         238	1	80	1	0.0	15.60499954	22.6609993	39.65000153
         239	1	80	3	0.0	17.11800003	22.31699944	37.83399963
         240	1	80	4	0.0	14.35700035	23.19499969	38.99900055
         241	1	81	1	0.0	18.66799927	24.51600075	38.27999878
         242	1	81	3	0.0	20.57600021	23.43000031	37.4090004
         243	1	81	4	0.0	19.18600082	25.89900017	38.77799988
         244	1	82	1	0.0	20.82999992	21.5529995	39.43799973
         245	1	82	3	0.0	21.51600075	19.75099945	37.95199966
         246	1	82	4	0.0	20.75300026	20.82600021	40.75999832
         247	1	83	1	0.0	18.97299957	19.54199982	36.80400085
         248	1	83	3	0.0	19.17900085	19.3239994	34.42200089
         249	1	83	4	0.0	17.45700073	19.35300064	36.95800018
         250	1	84	1	0.0	20.30999947	21.75399971	33.99599838
         251	1	84	3	0.0	22.30699921	22.06699944	32.73300171
         252	1	84	4	0.0	19.86000061	23.18400002	34.00600052
         253	1	85	1	0.0	23.99399948	21.04199982	34.52099991
         254	1	85	3	0.0	23.80599976	19.01199913	33.26599884
         255	1	85	4	0.0	24.65600014	20.9659996	35.9109993
         256	1	86	1	0.0	26.41300011	19.04199982	32.36299896
         257	1	86	3	0.0	26.48600006	16.72800064	32.49900055
         258	1	86	4	0.0	27.80200005	19.47400093	31.92300034
         259	1	87	1	0.0	26.85000038	16.68499947	35.30599976
         260	1	87	3	0.0	24.60099983	16.86700058	36.15100098
         261	1	87	4	0.0	27.48200035	17.13299942	36.6230011
         262	1	88	1	0.0	23.81900024	14.38599968	35.31399918
         263	1	88	3	0.0	22.46899986	13.23700047	36.84600067
         264	1	88	4	0.0	23.52599907	13.35700035	34.20399857
         265	1	89	1	0.0	24.27799988	13.06799984	38.91400146
         266	1	89	3	0.0	22.18799973	12.56599998	39.93299866
         267	1	89	4	0.0	25.40500069	13.38199997	39.92900085
         268	1	90	1	0.0	21.45599937	15.11499977	40.44300079
         269	1	90	3	0.0	19.25300026	14.21100044	40.2859993
         270	1	90	4	0.0	21.41399956	16.63199997	40.65000153
         271	1	91	1	0.0	19.14299965	14.25399971	37.51399994
         272	1	91	3	0.0	17.78100014	12.29399967	37.92100143
         273	1	91	4	0.0	19.33600044	14.52099991	36.01399994
         274	1	92	1	0.0	19.71199989	10.49800014	37.88199997
         275	1	92	3	0.0	18.48200035	9.35599995	39.52999878
         276	1	92	4	0.0	20.82699966	9.45400047	37.3370018
         277	1	93	1	0.0	19.53000069	10.52000046	41.70500183
         278	1	93	3	0.0	17.32500076	10.09300041	42.54100037
         279	1	93	4	0.0	20.37700081	11.29199982	42.70899963
         280	1	94	1	0.0	16.15999985	12.28899956	41.38800049
         281	1	94	3	0.0	14.25699997	10.88300037	41.05599976
         282	1	94	4	0.0	15.94999981	13.72200012	40.86999893
         283	1	95	1	0.0	15.07800007	9.98900032	38.50899887
         284	1	95	3	0.0	13.77700043	8.09599972	39.06100082
         285	1	95	4	0.0	15.86699963	9.65400028	37.25400162
         286	1	96	1	0.0	15.61699963	6.96999979	40.79000092
         287	1	96	3	0.0	13.7489996	6.12400007	41.97900009
         288	1	96	4	0.0	16.87299919	6.625	41.57600021
         289	1	97	1	0.0	13.14000034	8.51200008	43.26100159
         290	1	97	3	0.0	10.85000038	7.9000001	43.0019989
         291	1	97	4	0.0	13.3739996	9.85700035	43.94499969
         292	1	98	1	0.0	10.45899963	9.10299969	40.66400146
         293	1	98	3	0.0	9.05599976	7.296	40.20800018
         294	1	98	4	0.0	10.24100018	10.31999969	39.56299973
         295	1	99	1	0.0	10.98700047	5.58500004	39.22000122
         296	1	99	3	0.0	10.22500038	3.5	40.08599854
         297	1	99	4	0.0	12.23600006	5.03399992	38.52700043
         298	1	100	1	0.0	10.3760004	4.27400017	42.79100037
         299	1	100	3	0.0	8.38300037	3.72099996	43.92100143
         300	1	100	4	0.0	11.09399986	4.73099995	44.01800156
         301	1	101	1	0.0	6.73600006	5.41200018	42.52600098
         302	1	101	3	0.0	6.6079998	3.34800005	41.30599976
         303	1	101	5	0.0	8.17399979	5.95122739	40.30501088
         304	1	102	1	0.0	3.96700001	2.88000011	41.93799973
         305	1	102	3	0.0	4.05100012	1.47899997	40.07400131
         306	1	102	5	0.0	4.71199989	1.74174296	39.83515016
         307	1	103	1	0.0	4.07000017	3.31299996	38.1570015
         308	1	103	3	0.0	5.53499985	3.37899995	36.2179985
         309	1	103	4	0.0	3.02800012	4.19999981	37.43799973
         310	1	104	1	0.0	7.84399986	3.26799989	37.68799973
         311	1	104	3	0.0	7.79899979	5.48000002	36.74300003
         312	1	104	5	0.0	6.50099993	2.2975735	35.44386645
         313	1	105	1	0.0	9.06400013	4.671	34.40499878
         314	1	105	3	0.0	8.08300018	6.10099983	32.79000092
         315	1	105	4	0.0	10.0170002	3.97099996	33.44900131
         316	1	106	1	0.0	5.47700024	5.32999992	33.22700119
         317	1	106	3	0.0	4.50600004	7.47100019	32.91699982
         318	1	106	4	0.0	4.21099997	4.63000011	33.58000183
         319	1	107	1	0.0	5.88999987	8.66399956	34.98899841
         320	1	107	3	0.0	6.08300018	10.67599964	33.80099869
         321	1	107	4	0.0	6.76100016	8.91899967	36.20299911
         322	1	108	1	0.0	7.72900009	9.73200035	31.78100014
         323	1	108	3	0.0	7.00199986	8.26799965	30.03300095
         324	1	108	4	0.0	9.20600033	9.39299965	31.49699974
         325	1	109	1	0.0	5.05299997	9.80700016	29.07699966
         326	1	109	3	0.0	5.42399979	8.87800026	26.99500084
         327	1	109	4	0.0	3.77800012	10.70899963	28.80200005
         328	1	110	1	0.0	7.63700008	10.13899994	26.27899933
         329	1	110	3	0.0	8.2329998	8.0369997	25.27400017
         330	1	110	4	0.0	8.7869997	11.10000038	26.05900002
         331	1	111	1	0.0	9.11900043	6.81899977	27.52499962
         332	1	111	3	0.0	8.02499962	4.89300013	26.56399918
         333	1	111	4	0.0	9.79899979	6.48500013	28.89599991
         334	1	112	1	0.0	5.66499996	5.31599998	27.80200005
         335	1	112	3	0.0	4.91200018	4.11199999	25.84499931
         336	1	112	4	0.0	4.58199978	5.90700006	28.66200066
         337	1	113	1	0.0	4.81099987	6.28499985	24.23800087
         338	1	113	3	0.0	5.329	5.38700008	22.13500023
         339	1	113	4	0.0	4.22800016	7.63399982	23.89599991
         340	1	114	1	0.0	8.02999973	5.84200001	22.2840004
         341	1	114	3	0.0	9.77700043	4.33599997	21.70599937
         342	1	114	4	0.0	8.80599976	7.11100006	21.92200089
         343	1	115	1	0.0	10.18599987	3.40799999	24.31699944
         344	1	115	3	0.0	10.09399986	1.01499999	24.55500031
         345	1	115	4	0.0	11.05200005	4.0250001	25.43600082
         346	1	116	1	0.0	8.09300041	1.11800003	26.49699974
         347	1	116	3	0.0	7.04300022	0.20200001	24.51600075
         348	1	116	4	0.0	6.89799976	1.58399999	27.2859993
         349	1	117	1	0.0	7.70100021	-2.34899998	25.02799988
         350	1	117	3	0.0	8.56200027	-3.7579999	23.35000038
         351	1	117	5	0.0	8.17700005	-3.09222307	23.42124373
         352	1	118	1	0.0	10.23999977	-1.97800004	22.24799919
         353	1	118	3	0.0	11.7869997	-2.72799993	23.91300011
         354	1	118	4	0.0	10.52299976	-0.67000002	21.45400047
         355	1	119	1	0.0	13.70699978	-3.53900003	22.13199997
         356	1	119	3	0.0	15.4460001	-1.87399995	21.58600044
         357	1	119	4	0.0	14.28299999	-4.375	20.98500061
         358	1	120	1	0.0	15.25199986	-0.787	24.23399925
         359	1	120	3	0.0	17.56999969	-0.19499999	24.47299957
         360	1	120	4	0.0	14.38300037	-0.66500002	25.51300049
         361	1	121	1	0.0	18.62599945	-2.73799992	24.23200035
         362	1	121	3	0.0	20.49200058	-1.89300001	23.0340004
         363	1	121	4	0.0	18.84300041	-4.28499985	24.26600075
         364	1	122	1	0.0	19.09600067	-1.14400005	20.80500031
         365	1	122	3	0.0	20.76600075	0.62800002	20.6060009
         366	1	122	4	0.0	17.95400047	-0.87400001	19.81800079
         367	1	123	1	0.0	19.78800011	2.20000005	22.57999992
         368	1	123	3	0.0	21.87299919	3.17600012	23.24300003
         369	1	123	4	0.0	18.80800056	2.90300012	23.54500008
         370	1	124	1	0.0	23.00699997	0.866	24.10199928
         371	1	124	3	0.0	25.07900047	-0.22400001	23.60000038
         372	1	124	4	0.0	23.0340004	0.285	25.53499985
         373	1	125	1	0.0	24.13999939	-1.12600005	20.97400093
         374	1	125	3	0.0	25.27799988	0.73699999	20.00600052
         375	1	125	4	0.0	23.1609993	-1.38699996	19.79299927
         376	1	126	1	0.0	27.7329998	-0.228	19.88500023
         377	1	126	3	0.0	29.50399971	1.14499998	20.73600006
         378	1	126	5	0.0	26.59499931	-0.02145952	17.45099681
         379	1	127	1	0.0	28.5170002	1.52600002	23.18499947
         380	1	127	3	0.0	29.05900002	-0.55800003	24.23699951
         381	1	127	4	0.0	27.49600029	2.06900001	24.13999939
         382	1	128	1	0.0	31.58099937	0.142	24.8409996
         383	1	128	3	0.0	31.2859993	1.83000004	26.50799942
         384	1	128	4	0.0	33.04399872	0.47499999	24.50099945
         385	1	129	1	0.0	30.19199944	0.025	28.40099907
         386	1	129	3	0.0	31.11599922	-2.12299991	28.90399933
         387	1	129	4	0.0	28.67399979	-0.084	28.51199913

Bond Coeffs

           1	200.0	3.77
           2	200.0	2.41
           3	200.0	2.50
           4	200.0	1.54
           5	200.0	1.54
Bonds

           1	2	1	2
           2	4	1	3
           3	1	1	4
           4	3	2	4
           5	2	4	5
           6	4	4	6
           7	1	4	7
           8	3	5	7
           9	2	7	8
          10	4	7	9
          11	1	7	10
          12	3	8	10
          13	2	10	11
          14	5	10	12
          15	1	10	13
          16	3	11	13
          17	2	13	14
          18	4	13	15
          19	1	13	16
          20	3	14	16
          21	2	16	17
          22	4	16	18
          23	1	16	19
          24	3	17	19
          25	2	19	20
          26	4	19	21
          27	1	19	22
          28	3	20	22
          29	2	22	23
          30	4	22	24
          31	1	22	25
          32	3	23	25
          33	2	25	26
          34	4	25	27
          35	1	25	28
          36	3	26	28
          37	2	28	29
          38	4	28	30
          39	1	28	31
          40	3	29	31
          41	2	31	32
          42	4	31	33
          43	1	31	34
          44	3	32	34
          45	2	34	35
          46	4	34	36
          47	1	34	37
          48	3	35	37
          49	2	37	38
          50	4	37	39
          51	1	37	40
          52	3	38	40
          53	2	40	41
          54	4	40	42
          55	1	40	43
          56	3	41	43
          57	2	43	44
          58	4	43	45
          59	1	43	46
          60	3	44	46
          61	2	46	47
          62	5	46	48
          63	1	46	49
          64	3	47	49
          65	2	49	50
          66	4	49	51
          67	1	49	52
          68	3	50	52
          69	2	52	53
          70	4	52	54
          71	1	52	55
          72	3	53	55
          73	2	55	56
          74	4	55	57
          75	1	55	58
          76	3	56	58
          77	2	58	59
          78	4	58	60
          79	1	58	61
          80	3	59	61
          81	2	61	62
          82	4	61	63
          83	1	61	64
          84	3	62	64
          85	2	64	65
          86	5	64	66
          87	1	64	67
          88	3	65	67
          89	2	67	68
          90	4	67	69
          91	1	67	70
          92	3	68	70
          93	2	70	71
          94	4	70	72
          95	1	70	73
          96	3	71	73
          97	2	73	74
          98	4	73	75
          99	1	73	76
         100	3	74	76
         101	2	76	77
         102	5	76	78
         103	1	76	79
         104	3	77	79
         105	2	79	80
         106	4	79	81
         107	1	79	82
         108	3	80	82
         109	2	82	83
         110	4	82	84
         111	1	82	85
         112	3	83	85
         113	2	85	86
         114	4	85	87
         115	1	85	88
         116	3	86	88
         117	2	88	89
         118	4	88	90
         119	1	88	91
         120	3	89	91
         121	2	91	92
         122	4	91	93
         123	1	91	94
         124	3	92	94
         125	2	94	95
         126	4	94	96
         127	1	94	97
         128	3	95	97
         129	2	97	98
         130	4	97	99
         131	1	97	100
         132	3	98	100
         133	2	100	101
         134	4	100	102
         135	1	100	103
         136	3	101	103
         137	2	103	104
         138	4	103	105
         139	1	103	106
         140	3	104	106
         141	2	106	107
         142	4	106	108
         143	1	106	109
         144	3	107	109
         145	2	109	110
         146	4	109	111
         147	1	109	112
         148	3	110	112
         149	2	112	113
         150	4	112	114
         151	1	112	115
         152	3	113	115
         153	2	115	116
         154	4	115	117
         155	1	115	118
         156	3	116	118
         157	2	118	119
         158	4	118	120
         159	1	118	121
         160	3	119	121
         161	2	121	122
         162	4	121	123
         163	1	121	124
         164	3	122	124
         165	2	124	125
         166	4	124	126
         167	1	124	127
         168	3	125	127
         169	2	127	128
         170	4	127	129
         171	1	127	130
         172	3	128	130
         173	2	130	131
         174	4	130	132
         175	1	130	133
         176	3	131	133
         177	2	133	134
         178	4	133	135
         179	1	133	136
         180	3	134	136
         181	2	136	137
         182	4	136	138
         183	1	136	139
         184	3	137	139
         185	2	139	140
         186	4	139	141
         187	1	139	142
         188	3	140	142
         189	2	142	143
         190	4	142	144
         191	1	142	145
         192	3	143	145
         193	2	145	146
         194	5	145	147
         195	1	145	148
         196	3	146	148
         197	2	148	149
         198	4	148	150
         199	1	148	151
         200	3	149	151
         201	2	151	152
         202	4	151	153
         203	1	151	154
         204	3	152	154
         205	2	154	155
         206	4	154	156
         207	1	154	157
         208	3	155	157
         209	2	157	158
         210	4	157	159
         211	1	157	160
         212	3	158	160
         213	2	160	161
         214	5	160	162
         215	1	160	163
         216	3	161	163
         217	2	163	164
         218	4	163	165
         219	1	163	166
         220	3	164	166
         221	2	166	167
         222	4	166	168
         223	1	166	169
         224	3	167	169
         225	2	169	170
         226	4	169	171
         227	1	169	172
         228	3	170	172
         229	2	172	173
         230	4	172	174
         231	1	172	175
         232	3	173	175
         233	2	175	176
         234	4	175	177
         235	1	175	178
         236	3	176	178
         237	2	178	179
         238	4	178	180
         239	1	178	181
         240	3	179	181
         241	2	181	182
         242	4	181	183
         243	1	181	184
         244	3	182	184
         245	2	184	185
         246	4	184	186
         247	1	184	187
         248	3	185	187
         249	2	187	188
         250	4	187	189
         251	1	187	190
         252	3	188	190
         253	2	190	191
         254	4	190	192
         255	1	190	193
         256	3	191	193
         257	2	193	194
         258	4	193	195
         259	1	193	196
         260	3	194	196
         261	2	196	197
         262	4	196	198
         263	1	196	199
         264	3	197	199
         265	2	199	200
         266	5	199	201
         267	1	199	202
         268	3	200	202
         269	2	202	203
         270	4	202	204
         271	1	202	205
         272	3	203	205
         273	2	205	206
         274	4	205	207
         275	1	205	208
         276	3	206	208
         277	2	208	209
         278	4	208	210
         279	1	208	211
         280	3	209	211
         281	2	211	212
         282	5	211	213
         283	1	211	214
         284	3	212	214
         285	2	214	215
         286	4	214	216
         287	1	214	217
         288	3	215	217
         289	2	217	218
         290	4	217	219
         291	1	217	220
         292	3	218	220
         293	2	220	221
         294	4	220	222
         295	1	220	223
         296	3	221	223
         297	2	223	224
         298	4	223	225