ITEM: TIMESTEP
0
ITEM: NUMBER OF ATOMS
387
ITEM: BOX BOUNDS ss ss ss
-1.213 33.084
-4.91548 30.683
17.411 48.978
ITEM: ATOMS id type xs ys zs
1 1 0.77619 0.705381 0.301296
2 3 0.721783 0.663076 0.303545
3 4 0.810625 0.686082 0.320208
4 1 0.73365 0.6349 0.225837
5 3 0.795172 0.604562 0.207274
6 4 0.711841 0.646389 0.18155
7 1 0.770621 0.538098 0.247284
8 3 0.739977 0.515541 0.184782
9 4 0.753798 0.514614 0.28251
10 1 0.795901 0.465679 0.163842
11 3 0.77412 0.4277 0.222574
12 5 0.80007 0.437758 0.0760789
13 1 0.736653 0.373653 0.176228
14 3 0.749832 0.340899 0.239522
15 4 0.720734 0.350141 0.138816
16 1 0.81978 0.310729 0.212881
17 3 0.848471 0.315196 0.281338
18 4 0.850978 0.29174 0.1857
19 1 0.863807 0.391098 0.276745
20 3 0.847421 0.388036 0.351126
21 4 0.871563 0.428993 0.257484
22 1 0.767152 0.398289 0.338645
23 3 0.759862 0.354973 0.396902
24 4 0.727965 0.408121 0.318782
25 1 0.757413 0.291122 0.348719
26 3 0.781439 0.266373 0.414959
27 4 0.760271 0.263396 0.312098
28 1 0.857072 0.285616 0.400513
29 3 0.859375 0.292807 0.476035
30 4 0.895355 0.293397 0.377134
31 1 0.836225 0.367389 0.475465
32 3 0.808205 0.348315 0.54161
33 4 0.82392 0.406351 0.461843
34 1 0.740094 0.320505 0.506478
35 3 0.738257 0.273986 0.562011
36 4 0.705339 0.314409 0.477366
37 1 0.786687 0.225248 0.521938
38 3 0.804618 0.213759 0.593119
39 4 0.810829 0.203253 0.490829
40 1 0.862233 0.265446 0.596351
41 3 0.853486 0.280896 0.669465
42 4 0.89518 0.292414 0.585421
43 1 0.780097 0.308959 0.661704
44 3 0.723066 0.290672 0.69994
45 4 0.762487 0.346573 0.647163
46 1 0.727644 0.216259 0.680869
47 3 0.662215 0.193786 0.680648
48 5 0.752311 0.187033 0.632342
49 1 0.643001 0.219377 0.60313
50 3 0.600606 0.172156 0.572402
51 4 0.63647 0.252215 0.574112
52 1 0.658454 0.124822 0.548548
53 3 0.652069 0.0893713 0.613584
54 4 0.696271 0.10808 0.534609
55 1 0.577747 0.0630219 0.588494
56 3 0.547132 0.0584431 0.656572
57 4 0.597428 0.0252394 0.597903
58 1 0.542001 0.133165 0.669813
59 3 0.478934 0.134654 0.635949
60 4 0.55066 0.174375 0.669497
61 1 0.442109 0.0972368 0.704977
62 3 0.39225 0.0804103 0.653657
63 4 0.415751 0.130441 0.714354
64 1 0.442517 0.0295654 0.616435
65 3 0.436452 0.0286384 0.542529
66 5 0.452955 0.00112364 0.537221
67 1 0.461556 0.0988942 0.527164
68 3 0.529755 0.112266 0.530111
69 4 0.446978 0.139317 0.530174
70 1 0.549902 0.0779945 0.457376
71 3 0.536927 0.141452 0.433934
72 4 0.552526 0.0495944 0.421485
73 1 0.617809 0.157408 0.425159
74 3 0.592588 0.209882 0.387462
75 4 0.661632 0.153475 0.416258
76 1 0.573899 0.17165 0.313904
77 3 0.526402 0.220613 0.299332
78 5 0.59046 0.17186 0.217852
79 1 0.477389 0.203702 0.365603
80 3 0.464735 0.269913 0.362087
81 4 0.457387 0.187072 0.404251
82 1 0.526489 0.287694 0.415434
83 3 0.535586 0.345281 0.378053
84 4 0.555442 0.282638 0.452466
85 1 0.582908 0.313173 0.3159
86 3 0.548211 0.355394 0.270916
87 4 0.613173 0.288453 0.291159
88 1 0.490713 0.306122 0.248329
89 3 0.453742 0.364102 0.245858
90 4 0.467883 0.270081 0.242437
91 1 0.434878 0.365057 0.33082
92 3 0.433099 0.430004 0.315614
93 4 0.430504 0.35618 0.377831
94 1 0.511736 0.442589 0.327621
95 3 0.507479 0.490259 0.274052
96 4 0.554188 0.438178 0.340641
97 1 0.511153 0.442532 0.206133
98 3 0.471091 0.492394 0.182026
99 4 0.516867 0.408009 0.177876
100 1 0.402338 0.458151 0.196408
101 3 0.363297 0.510794 0.21212
102 4 0.371024 0.426464 0.193303
103 1 0.394495 0.52248 0.290557
104 3 0.399423 0.58869 0.279754
105 4 0.4047 0.513968 0.33798
106 1 0.476893 0.590994 0.262426
107 3 0.526139 0.617428 0.218995
108 4 0.499956 0.595657 0.303038
109 1 0.536169 0.554335 0.16777
110 3 0.604076 0.572032 0.164919
111 4 0.529347 0.582791 0.129946
112 1 0.61918 0.542761 0.246808
113 3 0.671429 0.586022 0.267019
114 4 0.650436 0.520738 0.221244
115 1 0.622474 0.648215 0.271549
116 3 0.578855 0.659002 0.331454
117 4 0.599703 0.674621 0.242468
118 1 0.642039 0.672177 0.386891
119 3 0.605359 0.71628 0.430608
120 4 0.686387 0.669424 0.392625
121 1 0.598682 0.769456 0.368233
122 3 0.538327 0.799682 0.356797
123 4 0.61813 0.799542 0.342161
124 1 0.499402 0.73777 0.330725
125 3 0.477418 0.738191 0.402731
126 4 0.488177 0.69892 0.316755
127 1 0.413476 0.78235 0.388475
128 3 0.375047 0.797688 0.327621
129 4 0.42164 0.820582 0.411537
130 1 0.305449 0.779878 0.364051
131 3 0.278771 0.776676 0.433681
132 4 0.292066 0.742686 0.343523
133 1 0.226755 0.832015 0.42348
134 3 0.181561 0.79575 0.384832
135 4 0.214888 0.872832 0.418127
136 1 0.137009 0.780637 0.459246
137 3 0.10514 0.834853 0.489499
138 4 0.137155 0.752237 0.495201
139 1 0.0301193 0.80561 0.458802
140 3 0.00116628 0.851033 0.507999
141 4 0.00344053 0.771676 0.447144
142 1 0.0282824 0.813222 0.579656
143 3 0.0593055 0.842999 0.639719
144 4 0.0267662 0.776873 0.604619
145 1 0.109864 0.883984 0.594102
146 3 0.175059 0.886428 0.619033
147 5 0.0825728 0.872384 0.530676
148 1 0.18885 0.811116 0.614281
149 3 0.196752 0.817914 0.53822
150 4 0.180716 0.772125 0.633035
151 1 0.274601 0.795637 0.539424
152 3 0.30128 0.743866 0.578009
153 4 0.303204 0.829206 0.539678
154 1 0.328134 0.707291 0.504261
155 3 0.377292 0.739764 0.464061
156 4 0.313468 0.68361 0.469351
157 1 0.43826 0.714566 0.512244
158 3 0.463627 0.652935 0.520005
159 4 0.454121 0.731 0.553426
160 1 0.526897 0.667289 0.465613
161 3 0.489926 0.629479 0.415814
162 5 0.493688 0.631654 0.412429
163 1 0.551593 0.578072 0.407831
164 3 0.504155 0.533857 0.382045
165 4 0.592559 0.559616 0.41328
166 1 0.468292 0.522761 0.457947
167 3 0.403796 0.528379 0.484969
168 4 0.477914 0.494164 0.493458
169 1 0.395866 0.603354 0.466436
170 3 0.337493 0.589393 0.507714
171 4 0.371665 0.594449 0.426838
172 1 0.37808 0.598494 0.583077
173 3 0.37082 0.66521 0.591219
174 4 0.413622 0.589336 0.612253
175 1 0.296061 0.662401 0.618589
176 3 0.305304 0.660772 0.695378
177 4 0.253375 0.653777 0.607945
178 1 0.293408 0.738303 0.704438
179 3 0.255212 0.755495 0.764533
180 4 0.302592 0.778783 0.693319
181 1 0.192145 0.71319 0.746729
182 3 0.194128 0.692684 0.819812
183 4 0.158352 0.698218 0.720499
184 1 0.228737 0.62563 0.803149
185 3 0.278537 0.612343 0.851617
186 4 0.216433 0.585797 0.791079
187 1 0.336822 0.612596 0.792156
188 3 0.392979 0.630743 0.82713
189 4 0.349185 0.589702 0.752051
190 1 0.399773 0.700465 0.795641
191 3 0.347465 0.744343 0.790446
192 4 0.429134 0.701813 0.758419
193 1 0.386477 0.800975 0.830804
194 3 0.442721 0.832633 0.80261
195 4 0.392979 0.811649 0.87696
196 1 0.402776 0.878675 0.747806
197 3 0.403505 0.945531 0.740077
198 4 0.388226 0.874208 0.702347
199 1 0.368283 0.960869 0.816169
200 3 0.31131 0.998876 0.818576
201 5 0.37601 0.933783 0.756509
202 1 0.282794 0.982134 0.743561
203 3 0.220223 0.964549 0.720911
204 4 0.292679 0.998399 0.699306
205 1 0.21445 0.897327 0.755694
206 3 0.211214 0.884518 0.829379
207 4 0.227396 0.857522 0.745969
208 1 0.139866 0.913592 0.844268
209 3 0.118349 0.849994 0.835049
210 4 0.10307 0.935138 0.837489
211 1 0.137796 0.828757 0.91659
212 3 0.149022 0.763838 0.904489
213 5 0.145844 0.770513 0.851327
214 1 0.222468 0.773333 0.869516
215 3 0.236056 0.762378 0.94377
216 4 0.259323 0.790862 0.854658
217 1 0.232294 0.684818 0.938258
218 3 0.2909 0.66493 0.975132
219 4 0.210164 0.647991 0.930814
220 1 0.341313 0.678554 0.909843
221 3 0.380383 0.640097 0.956664
222 4 0.36009 0.711364 0.932968
223 1 0.346532 0.573774 0.93357
224 3 0.404467 0.539138 0.949536
225 4 0.319241 0.544559 0.915608
226 1 0.448669 0.565684 0.886495
227 3 0.512406 0.583915 0.910001
228 4 0.459836 0.568774 0.839579
229 1 0.485349 0.644479 0.95923
230 3 0.552847 0.659368 0.946463
231 4 0.502056 0.623664 0.998733
232 1 0.536403 0.69642 0.872525
233 3 0.483512 0.732741 0.843096
234 4 0.546462 0.6633 0.840878
235 1 0.527597 0.792182 0.816802
236 3 0.548095 0.754287 0.758355
237 4 0.5583 0.822408 0.821332
238 1 0.490364 0.774653 0.704502
239 3 0.534478 0.76499 0.646973
240 4 0.453976 0.789654 0.683879
241 1 0.579672 0.826762 0.661102
242 3 0.635303 0.796255 0.63351
243 4 0.594775 0.865612 0.676878
244 1 0.642709 0.743528 0.697786
245 3 0.662711 0.692908 0.650711
246 4 0.640464 0.723106 0.739665
247 1 0.588565 0.687037 0.614344
248 3 0.594571 0.680913 0.538886
249 4 0.544363 0.681728 0.619223
250 1 0.627548 0.749175 0.52539
251 3 0.685774 0.757967 0.48538
252 4 0.614427 0.789345 0.525707
253 1 0.734962 0.729174 0.542022
254 3 0.729481 0.672149 0.502265
255 4 0.754264 0.727039 0.586055
256 1 0.805493 0.672992 0.473659
257 3 0.807622 0.607989 0.477968
258 4 0.845992 0.685127 0.459721
259 1 0.818235 0.606781 0.56689
260 3 0.752661 0.611894 0.593658
261 4 0.836662 0.619366 0.60861
262 1 0.72986 0.5422 0.567143
263 3 0.690498 0.509923 0.615675
264 4 0.721317 0.513294 0.53198
265 1 0.743243 0.505176 0.681186
266 3 0.682305 0.491074 0.713467
267 4 0.776103 0.513996 0.71334
268 1 0.660962 0.562678 0.729623
269 3 0.596729 0.537284 0.724649
270 4 0.659737 0.605292 0.73618
271 1 0.593521 0.538492 0.636836
272 3 0.553809 0.483433 0.649729
273 4 0.599149 0.545992 0.589318
274 1 0.610112 0.432981 0.648494
275 3 0.574249 0.400901 0.7007
276 4 0.642622 0.403654 0.631229
277 1 0.604805 0.433599 0.769601
278 3 0.540514 0.421605 0.796085
279 4 0.629501 0.455286 0.801407
280 1 0.506546 0.483293 0.759559
281 3 0.45106 0.443797 0.749042
282 4 0.500423 0.523547 0.743149
283 1 0.474998 0.418683 0.668356
284 3 0.437064 0.365507 0.685843
285 4 0.498003 0.409273 0.6286
286 1 0.490713 0.333876 0.740615
287 3 0.436248 0.310111 0.778281
288 4 0.527335 0.324185 0.765515
289 1 0.418491 0.377193 0.818893
290 3 0.351722 0.360001 0.810688
291 4 0.425314 0.414975 0.840561
292 1 0.340321 0.393794 0.736624
293 3 0.299414 0.343034 0.722178
294 4 0.333965 0.427981 0.701746
295 1 0.355716 0.29497 0.69088
296 3 0.333499 0.2364 0.718313
297 4 0.392133 0.279492 0.668926
298 1 0.337901 0.258143 0.804004
299 3 0.279791 0.242608 0.839801
300 4 0.358836 0.27098 0.842874
301 1 0.23177 0.29011 0.795609
302 3 0.228037 0.23213 0.756961
303 5 0.273697 0.305258 0.725251
304 1 0.151034 0.218984 0.776982
305 3 0.153483 0.179628 0.717933
306 5 0.172756 0.187009 0.710367
307 1 0.154037 0.231147 0.657205
308 3 0.196752 0.233001 0.59578
309 4 0.123655 0.256064 0.634428
310 1 0.264076 0.229883 0.642348
311 3 0.262764 0.29202 0.612412
312 5 0.224918 0.202623 0.571257
313 1 0.299647 0.269295 0.538347
314 3 0.271044 0.309465 0.487186
315 4 0.327434 0.249631 0.508062
316 1 0.195061 0.287807 0.50103
317 3 0.166749 0.34795 0.491209
318 4 0.158148 0.268143 0.512212
319 1 0.207103 0.381462 0.556847
320 3 0.21273 0.437982 0.519213
321 4 0.232498 0.388626 0.595305
322 1 0.260723 0.411464 0.455222
323 3 0.239525 0.370338 0.399848
324 4 0.303788 0.401941 0.446226
325 1 0.182698 0.413571 0.369563
326 3 0.193515 0.387474 0.303608
327 4 0.145523 0.438909 0.360852
328 1 0.25804 0.422897 0.280926
329 3 0.275418 0.363849 0.249089
330 4 0.291571 0.449892 0.273957
331 1 0.301251 0.329634 0.320398
332 3 0.269353 0.275531 0.289955
333 4 0.321078 0.320252 0.363829
334 1 0.200542 0.287413 0.329173
335 3 0.178587 0.253592 0.267178
336 4 0.168965 0.304015 0.356417
337 1 0.175642 0.314634 0.21627
338 3 0.190746 0.289408 0.14965
339 4 0.158644 0.352529 0.205436
340 1 0.269499 0.302189 0.15437
341 3 0.320436 0.259884 0.13606
342 4 0.292125 0.337837 0.142903
343 1 0.332361 0.233816 0.218773
344 3 0.329679 0.166594 0.226312
345 4 0.357611 0.251148 0.254221
346 1 0.271336 0.169487 0.287832
347 3 0.240721 0.143756 0.225077
348 4 0.236493 0.182578 0.312827
349 1 0.259906 0.0720953 0.241296
350 3 0.28501 0.032515 0.18814
351 5 0.273785 0.0512174 0.190397
352 1 0.333936 0.0825171 0.15323
353 3 0.379042 0.0614488 0.205975
354 4 0.342187 0.11926 0.128077
355 1 0.435023 0.0386669 0.149555
356 3 0.485728 0.0854386 0.132258
357 4 0.451818 0.0151828 0.11322
358 1 0.480071 0.115974 0.216143
359 3 0.547657 0.132604 0.223715
360 4 0.454734 0.119401 0.256661
361 1 0.578447 0.0611679 0.21608
362 3 0.632854 0.0849049 0.178129
363 4 0.584774 0.017711 0.217157
364 1 0.592151 0.105945 0.107517
365 3 0.640843 0.155722 0.101213
366 4 0.558854 0.11353 0.0762506
367 1 0.612328 0.199882 0.163747
368 3 0.67312 0.227299 0.18475
369 4 0.583754 0.21963 0.194317
370 1 0.706184 0.162408 0.211962
371 3 0.766598 0.131789 0.196059
372 4 0.706971 0.146087 0.257357
373 1 0.739219 0.106451 0.112871
374 3 0.7724 0.158784 0.0822062
375 4 0.710674 0.0991189 0.0754586
376 1 0.843981 0.131677 0.0783731
377 3 0.895618 0.170246 0.105332
378 5 0.8108 0.137478 0.00126715
379 1 0.86684 0.180948 0.182913
380 3 0.882643 0.122406 0.216239
381 4 0.83707 0.196202 0.213166
382 1 0.956177 0.14207 0.235372
383 3 0.947576 0.189488 0.288181
384 4 0.998834 0.151425 0.224602
385 1 0.915678 0.138784 0.348148
386 3 0.942619 0.0784439 0.364083
387 4 0.871417 0.135722 0.351665
ITEM: TIMESTEP
1000
ITEM: NUMBER OF ATOMS
387
ITEM: BOX BOUNDS ss ss ss
-1.213 33.084
-4.91548 30.683
17.411 48.978
ITEM: ATOMS id type xs ys zs
1 1 0.806229 0.719458 0.299476
2 3 0.7613 0.667787 0.299097
3 4 0.826396 0.701913 0.338463
4 1 0.763621 0.648779 0.221799
5 3 0.825603 0.610988 0.22899
6 4 0.76064 0.658866 0.174558
7 1 0.792885 0.549741 0.238668
8 3 0.757456 0.526163 0.182137
9 4 0.782235 0.534905 0.282793
10 1 0.80337 0.4733 0.159302
11 3 0.769081 0.436229 0.214903
12 5 0.762129 0.480069 0.179026
13 1 0.748751 0.380885 0.169794
14 3 0.757178 0.329284 0.219143
15 4 0.726486 0.363487 0.133055
16 1 0.830393 0.32214 0.203233
17 3 0.865259 0.332751 0.270381
18 4 0.857462 0.304436 0.17008
19 1 0.873018 0.401445 0.265491
20 3 0.85638 0.416176 0.335966
21 4 0.882702 0.439472 0.242932
22 1 0.782495 0.407219 0.334634
23 3 0.7696 0.361009 0.387078
24 4 0.745138 0.424053 0.315424
25 1 0.780514 0.301986 0.343078
26 3 0.812363 0.264363 0.393044
27 4 0.77678 0.275534 0.303843
28 1 0.878472 0.297704 0.392337
29 3 0.881463 0.308142 0.466373
30 4 0.916953 0.310282 0.369159
31 1 0.857923 0.375666 0.469879
32 3 0.820261 0.36156 0.533417
33 4 0.851707 0.415416 0.453368
34 1 0.762373 0.33116 0.50104
35 3 0.762141 0.279584 0.553345
36 4 0.726603 0.326571 0.472129
37 1 0.808416 0.235464 0.516289
38 3 0.843394 0.219664 0.582002
39 4 0.827948 0.214025 0.479546
40 1 0.881471 0.27933 0.590173
41 3 0.871085 0.298043 0.662626
42 4 0.91515 0.302397 0.576845
43 1 0.799895 0.32148 0.655403
44 3 0.767992 0.289438 0.711807
45 4 0.775398 0.353932 0.640533
46 1 0.745341 0.23092 0.673839
47 3 0.677949 0.222221 0.673277
48 5 0.726197 0.23165 0.718896
49 1 0.66046 0.233114 0.597208
50 3 0.625516 0.190024 0.553007
51 4 0.6551 0.265224 0.566455
52 1 0.676505 0.138888 0.545831
53 3 0.665599 0.0974273 0.606949
54 4 0.71645 0.122302 0.532537
55 1 0.595694 0.078988 0.588247
56 3 0.568409 0.0801736 0.658806
57 4 0.616716 0.0433114 0.5994
58 1 0.559679 0.150317 0.666745
59 3 0.492473 0.152848 0.643823
60 4 0.568621 0.192648 0.661493
61 1 0.461033 0.113763 0.701377
62 3 0.413145 0.0847496 0.656778
63 4 0.438857 0.149419 0.713053
64 1 0.457195 0.0431039 0.613593
65 3 0.45233 0.0477512 0.540265
66 5 0.474957 0.0677757 0.575739
67 1 0.480092 0.109864 0.521698
68 3 0.551734 0.104672 0.525933
69 4 0.468533 0.148153 0.522272
70 1 0.568075 0.0887326 0.451287
71 3 0.563547 0.151294 0.422588
72 4 0.564276 0.055242 0.420666
73 1 0.633337 0.171622 0.41942
74 3 0.609559 0.218686 0.371339
75 4 0.67784 0.164889 0.408239
76 1 0.578957 0.171841 0.317963
77 3 0.529632 0.216155 0.299088
78 5 0.578726 0.164151 0.268797
79 1 0.489206 0.217718 0.362168
80 3 0.480048 0.287345 0.363803
81 4 0.466899 0.19579 0.398979
82 1 0.539386 0.299848 0.408793
83 3 0.553821 0.353365 0.364786
84 4 0.570023 0.295427 0.445336
85 1 0.592035 0.318886 0.30752
86 3 0.56056 0.353127 0.251189
87 4 0.625907 0.297549 0.286843
88 1 0.500491 0.313485 0.245512
89 3 0.45257 0.36326 0.244078
90 4 0.481295 0.275339 0.236862
91 1 0.446488 0.374014 0.322736
92 3 0.445458 0.443462 0.316534
93 4 0.437456 0.361666 0.369011
94 1 0.517818 0.449996 0.312402
95 3 0.517934 0.494268 0.25372
96 4 0.560693 0.444816 0.327203
97 1 0.518947 0.448395 0.193309
98 3 0.47492 0.487282 0.157461
99 4 0.529737 0.41383 0.168517
100 1 0.411924 0.462124 0.18389
101 3 0.372141 0.512534 0.203363
102 4 0.383065 0.429861 0.178127
103 1 0.400268 0.530568 0.274777
104 3 0.413934 0.595555 0.273964
105 4 0.409198 0.516418 0.320642
106 1 0.485345 0.594672 0.248169
107 3 0.512269 0.621095 0.182108
108 4 0.52059 0.588674 0.2809
109 1 0.543901 0.560884 0.156602
110 3 0.613088 0.572961 0.157655
111 4 0.533236 0.587632 0.120014
112 1 0.626728 0.554369 0.232342
113 3 0.671838 0.605207 0.247758
114 4 0.655739 0.5299 0.209046
115 1 0.624362 0.657219 0.258319
116 3 0.591137 0.664866 0.32388
117 4 0.60256 0.683659 0.229777
118 1 0.64629 0.678868 0.372112
119 3 0.612382 0.720441 0.418032
120 4 0.689208 0.679922 0.384952
121 1 0.600971 0.774332 0.369438
122 3 0.538776 0.800442 0.361602
123 4 0.622514 0.805438 0.344735
124 1 0.503594 0.745025 0.327769
125 3 0.469427 0.738464 0.392519
126 4 0.49626 0.705106 0.310166
127 1 0.414976 0.783954 0.38354
128 3 0.370949 0.802588 0.32853
129 4 0.425527 0.820371 0.409855
130 1 0.307248 0.779596 0.358801
131 3 0.277729 0.778927 0.427942
132 4 0.296271 0.741372 0.339549
133 1 0.224789 0.827831 0.418616
134 3 0.181068 0.783645 0.390951
135 4 0.213668 0.867677 0.408578
136 1 0.137931 0.773979 0.455386
137 3 0.0949119 0.82593 0.466106
138 4 0.140498 0.749022 0.492679
139 1 0.0310547 0.7959 0.450246
140 3 -0.00840994 0.830852 0.498418
141 4 0.00534114 0.767427 0.430406
142 1 0.0255213 0.81349 0.566305
143 3 0.038165 0.86743 0.613766
144 4 0.0280709 0.774716 0.593235
145 1 0.108212 0.877883 0.591593
146 3 0.167292 0.872831 0.629539
147 5 0.123571 0.917643 0.580443
148 1 0.187737 0.808419 0.606763
149 3 0.201918 0.795838 0.533633
150 4 0.179566 0.767431 0.623202
151 1 0.273657 0.794017 0.535438
152 3 0.305991 0.740549 0.568227
153 4 0.304868 0.827241 0.536675
154 1 0.329411 0.707245 0.501644
155 3 0.382884 0.743353 0.470708
156 4 0.313108 0.684175 0.46568
157 1 0.437158 0.708214 0.51056
158 3 0.462654 0.646878 0.515688
159 4 0.45104 0.730014 0.552277
160 1 0.528014 0.656627 0.480368
161 3 0.502857 0.624852 0.420906
162 5 0.489833 0.663076 0.459668
163 1 0.552444 0.573483 0.414237
164 3 0.50641 0.529456 0.391682
165 4 0.591507 0.552226 0.41771
166 1 0.467875 0.51713 0.456802
167 3 0.398891 0.524128 0.461527
168 4 0.477797 0.491271 0.493152
169 1 0.396778 0.594745 0.467298
170 3 0.340193 0.592288 0.510201
171 4 0.369058 0.584054 0.428315
172 1 0.370538 0.590699 0.581189
173 3 0.360757 0.656498 0.590224
174 4 0.404409 0.583214 0.612514
175 1 0.291361 0.658149 0.615609
176 3 0.307907 0.661583 0.69035
177 4 0.249491 0.646469 0.605119
178 1 0.289606 0.729092 0.704976
179 3 0.25357 0.737224 0.768174
180 4 0.294969 0.771426 0.693975
181 1 0.189586 0.707891 0.747244
182 3 0.192859 0.678901 0.816551
183 4 0.154715 0.69217 0.720929
184 1 0.227738 0.619974 0.803206
185 3 0.281564 0.601552 0.847631
186 4 0.208625 0.583155 0.786806
187 1 0.335536 0.606919 0.792344
188 3 0.390707 0.628274 0.829188
189 4 0.349376 0.587857 0.752192
190 1 0.394374 0.69485 0.796547
191 3 0.357118 0.748885 0.776132
192 4 0.428295 0.683557 0.766063
193 1 0.383527 0.795729 0.828904
194 3 0.432241 0.82078 0.783975
195 4 0.391333 0.810736 0.872941
196 1 0.394893 0.873542 0.748776
197 3 0.415698 0.936391 0.767507
198 4 0.368367 0.873918 0.709704
199 1 0.358961 0.95752 0.812644
200 3 0.303408 0.997091 0.809794
201 5 0.323466 0.932574 0.802757
202 1 0.275129 0.978726 0.739685
203 3 0.209129 0.958017 0.72787
204 4 0.284939 0.990002 0.692279
205 1 0.211696 0.893817 0.755481
206 3 0.209887 0.890313 0.830329
207 4 0.226345 0.854309 0.749725
208 1 0.137718 0.905073 0.840488
209 3 0.106128 0.84051 0.83512
210 4 0.100499 0.929409 0.835036
211 1 0.131288 0.820263 0.908129
212 3 0.148406 0.761128 0.876842
213 5 0.088303 0.816531 0.90088
214 1 0.218854 0.768959 0.871768
215 3 0.242634 0.74863 0.938851
216 4 0.257007 0.785676 0.860309
217 1 0.229432 0.681525 0.939604
218 3 0.288579 0.666642 0.976031
219 4 0.203671 0.648315 0.93665
220 1 0.335671 0.674675 0.915097
221 3 0.37412 0.632278 0.958954
222 4 0.356715 0.708741 0.935213
223 1 0.342176 0.572517 0.939152
224 3 0.40039 0.53905 0.956568
225 4 0.315701 0.54281 0.925901
226 1 0.444927 0.564834 0.898355
227 3 0.499706 0.580983 0.943105
228 4 0.453378 0.572492 0.852235
229 1 0.47805 0.645185 0.967053
230 3 0.543716 0.67064 0.952948
231 4 0.494338 0.624671 1.00436
232 1 0.532505 0.693217 0.878663
233 3 0.48482 0.729061 0.837746
234 4 0.544715 0.661205 0.847192
235 1 0.524345 0.784972 0.817827
236 3 0.544662 0.75201 0.754624
237 4 0.554708 0.81552 0.822601
238 1 0.489539 0.769378 0.705296
239 3 0.534568 0.766926 0.645871
240 4 0.452277 0.782514 0.686168
241 1 0.579348 0.817733 0.665763
242 3 0.63751 0.784635 0.643432
243 4 0.595365 0.854238 0.683964
244 1 0.638864 0.734779 0.701032
245 3 0.651133 0.678758 0.65632
246 4 0.635534 0.715234 0.74409
247 1 0.586922 0.675031 0.620098
248 3 0.592297 0.674847 0.543847
249 4 0.542117 0.67226 0.62305
250 1 0.629592 0.736631 0.533822
251 3 0.689869 0.752017 0.497819
252 4 0.613839 0.775797 0.526038
253 1 0.735912 0.717358 0.548987
254 3 0.735472 0.658553 0.512538
255 4 0.753324 0.713347 0.594092
256 1 0.80425 0.656992 0.482361
257 3 0.800844 0.589793 0.498292
258 4 0.846376 0.668238 0.471628
259 1 0.815597 0.59221 0.576245
260 3 0.74587 0.596004 0.593517
261 4 0.832737 0.607837 0.618071
262 1 0.728463 0.527715 0.584649
263 3 0.692199 0.490033 0.634079
264 4 0.721292 0.499893 0.546276
265 1 0.736487 0.493377 0.696534
266 3 0.686125 0.487804 0.746745
267 4 0.771946 0.499957 0.724715
268 1 0.653686 0.551607 0.740831
269 3 0.589701 0.530831 0.726945
270 4 0.654489 0.593806 0.745422
271 1 0.589374 0.526139 0.647026
272 3 0.550018 0.470253 0.646148
273 4 0.59735 0.536004 0.598929
274 1 0.600221 0.420653 0.659484
275 3 0.572002 0.38383 0.718248
276 4 0.637062 0.396701 0.650542
277 1 0.591686 0.424926 0.778782
278 3 0.530759 0.427583 0.811199
279 4 0.619707 0.443924 0.809945
280 1 0.496778 0.473035 0.761229
281 3 0.437724 0.439295 0.740469
282 4 0.493832 0.513226 0.742273
283 1 0.464667 0.408744 0.673691
284 3 0.429438 0.350815 0.689103
285 4 0.492286 0.399406 0.635717
286 1 0.474283 0.326905 0.745835
287 3 0.422198 0.310697 0.793821
288 4 0.512018 0.31603 0.766859
289 1 0.401885 0.37275 0.821818
290 3 0.333698 0.367055 0.811615
291 4 0.411209 0.409202 0.844037
292 1 0.327705 0.386867 0.736361
293 3 0.289052 0.334776 0.707142
294 4 0.328316 0.417186 0.704377
295 1 0.343451 0.291702 0.690602
296 3 0.311317 0.240456 0.721522
297 4 0.378864 0.275386 0.668216
298 1 0.32327 0.247079 0.797421
299 3 0.26062 0.237551 0.825926
300 4 0.342386 0.26454 0.837207
301 1 0.221738 0.283797 0.787278
302 3 0.202212 0.243439 0.730781
303 5 0.224009 0.279314 0.834837
304 1 0.150988 0.203025 0.76642
305 3 0.153578 0.172289 0.69924
306 5 0.181075 0.232432 0.752629
307 1 0.140502 0.226503 0.651164
308 3 0.186926 0.213284 0.595705
309 4 0.123449 0.262074 0.633943
310 1 0.246931 0.226505 0.637726
311 3 0.256094 0.282578 0.599802
312 5 0.275251 0.196914 0.616257
313 1 0.288631 0.26798 0.534017
314 3 0.254653 0.304457 0.480322
315 4 0.315612 0.246388 0.505814
316 1 0.18551 0.290347 0.49786
317 3 0.156623 0.352433 0.505387
318 4 0.149018 0.269421 0.504056
319 1 0.201331 0.387814 0.548684
320 3 0.220611 0.438694 0.508272
321 4 0.226683 0.391222 0.589816
322 1 0.258123 0.411954 0.449461
323 3 0.236198 0.374002 0.394578
324 4 0.299445 0.396827 0.444741
325 1 0.184549 0.41559 0.363065
326 3 0.195587 0.390951 0.292156
327 4 0.157705 0.451234 0.356452
328 1 0.261443 0.423794 0.278172
329 3 0.283716 0.362728 0.2498
330 4 0.295447 0.449528 0.275524
331 1 0.296973 0.326864 0.315955
332 3 0.2614 0.271572 0.294074
333 4 0.319594 0.324454 0.357824
334 1 0.196381 0.29389 0.322615
335 3 0.164928 0.264535 0.263155
336 4 0.16306 0.310488 0.349664
337 1 0.165322 0.317733 0.211316
338 3 0.187599 0.286456 0.148202
339 4 0.152267 0.357868 0.202634
340 1 0.258338 0.296864 0.151749
341 3 0.293813 0.23776 0.141288
342 4 0.283123 0.330866 0.139573
343 1 0.322055 0.231164 0.214462
344 3 0.318091 0.167372 0.236417
345 4 0.350256 0.248429 0.247942
346 1 0.2585 0.168615 0.282299
347 3 0.225123 0.136532 0.224842
348 4 0.226113 0.186547 0.308537
349 1 0.242928 0.0712373 0.242949
350 3 0.272231 0.029118 0.192962
351 5 0.248851 0.0356008 0.215866
352 1 0.317514 0.0756269 0.156543
353 3 0.37321 0.0652993 0.201242
354 4 0.324612 0.113255 0.132189
355 1 0.416326 0.027193 0.153181
356 3 0.453512 0.083587 0.144973
357 4 0.431086 0.00510725 0.115157
358 1 0.465947 0.101813 0.217695
359 3 0.533186 0.113591 0.226546
360 4 0.449563 0.112629 0.262512
361 1 0.561522 0.0503177 0.205042
362 3 0.613135 0.0551616 0.152
363 4 0.566143 0.00693967 0.212714
364 1 0.57532 0.0925688 0.0978803
365 3 0.619243 0.145462 0.085091
366 4 0.53785 0.09573 0.0695092
367 1 0.599843 0.186789 0.144317
368 3 0.659915 0.211838 0.168385
369 4 0.571321 0.203848 0.17707
370 1 0.692746 0.151709 0.192293
371 3 0.742814 0.11052 0.167951
372 4 0.690973 0.133088 0.233635
373 1 0.723469 0.0952432 0.0959444
374 3 0.764384 0.142984 0.0644725
375 4 0.693406 0.0882342 0.0622246
376 1 0.827706 0.10659 0.0567288
377 3 0.869624 0.15805 0.075926
378 5 0.817089 0.0654583 0.0457836
379 1 0.85226 0.162261 0.152864
380 3 0.87122 0.111958 0.196872
381 4 0.823281 0.183191 0.179105
382 1 0.940621 0.127056 0.216306
383 3 0.952113 0.16435 0.280479
384 4 0.982999 0.128539 0.202482
385 1 0.903447 0.126881 0.32917
386 3 0.875672 0.107134 0.394938
387 4 0.860702 0.140582 0.330304
ITEM: TIMESTEP
2000
ITEM: NUMBER OF ATOMS
387
ITEM: BOX BOUNDS ss ss ss
-1.40112 32.5479
-5.11934 30.4265
17.9451 49.0798
ITEM: ATOMS id type xs ys zs
1 1 0.814432 0.721993 0.317923
2 3 0.763286 0.675156 0.309854
3 4 0.85828 0.715339 0.314543
4 1 0.773434 0.658443 0.231813
5 3 0.826327 0.622488 0.201182
6 4 0.756487 0.673638 0.190552
7 1 0.818891 0.560953 0.242773
8 3 0.781237 0.542419 0.180142
9 4 0.812169 0.539952 0.284502
10 1 0.820954 0.485229 0.157318
11 3 0.774623 0.452239 0.20195
12 5 0.809357 0.494322 0.207059
13 1 0.76996 0.391563 0.163093
14 3 0.78242 0.353119 0.224425
15 4 0.755046 0.371877 0.12371
16 1 0.84829 0.324634 0.202423
17 3 0.869305 0.335552 0.273088
18 4 0.885113 0.3122 0.173387
19 1 0.890223 0.403956 0.269994
20 3 0.867414 0.408239 0.345809
21 4 0.899677 0.443441 0.250861
22 1 0.794139 0.406537 0.328268
23 3 0.768352 0.359685 0.377027
24 4 0.757703 0.424405 0.306998
25 1 0.781902 0.302163 0.334714
26 3 0.816614 0.261385 0.385765
27 4 0.780466 0.280361 0.29042
28 1 0.881701 0.296939 0.389924
29 3 0.888016 0.309254 0.46741
30 4 0.921697 0.305345 0.369059
31 1 0.860269 0.373854 0.471765
32 3 0.820138 0.35434 0.52938
33 4 0.848148 0.412323 0.455178
34 1 0.760331 0.326622 0.497521
35 3 0.750956 0.268076 0.538275
36 4 0.726833 0.324252 0.463559
37 1 0.805605 0.231761 0.508788
38 3 0.831049 0.214809 0.578272
39 4 0.829062 0.210825 0.473381
40 1 0.877712 0.267596 0.591135
41 3 0.861609 0.282113 0.66453
42 4 0.911822 0.293687 0.579344
43 1 0.793782 0.309796 0.651976
44 3 0.740027 0.283848 0.694581
45 4 0.777794 0.348589 0.639864
46 1 0.739864 0.218721 0.664259
47 3 0.670309 0.213021 0.661225
48 5 0.755864 0.245132 0.629845
49 1 0.655394 0.224533 0.585231
50 3 0.616591 0.182486 0.541482
51 4 0.654788 0.257566 0.554324
52 1 0.670543 0.134463 0.526763
53 3 0.65714 0.0900909 0.580392
54 4 0.710979 0.116772 0.51509
55 1 0.591106 0.0665546 0.559735
56 3 0.562084 0.0643566 0.632985
57 4 0.614535 0.0299294 0.567658
58 1 0.551054 0.133089 0.641219
59 3 0.481494 0.140148 0.621604
60 4 0.55609 0.176285 0.642492
61 1 0.452235 0.0947811 0.67397
62 3 0.406989 0.0781538 0.611836
63 4 0.426263 0.127878 0.685136
64 1 0.455589 0.0322403 0.57724
65 3 0.428553 0.0512315 0.509175
66 5 0.419317 0.0103139 0.58811
67 1 0.481083 0.0986607 0.489566
68 3 0.551253 0.0972145 0.49853
69 4 0.468449 0.137603 0.496497
70 1 0.569579 0.0880692 0.420225
71 3 0.564311 0.156624 0.405544
72 4 0.573855 0.0594762 0.38629
73 1 0.637131 0.171409 0.397667
74 3 0.623466 0.218523 0.347786
75 4 0.679724 0.161854 0.388556
76 1 0.594689 0.186619 0.285217
77 3 0.537335 0.226122 0.271602
78 5 0.592242 0.228076 0.304107
79 1 0.497279 0.216028 0.336592
80 3 0.486092 0.283058 0.343579
81 4 0.479873 0.195413 0.372063
82 1 0.54249 0.299893 0.388271
83 3 0.559565 0.352549 0.343847
84 4 0.573574 0.290438 0.422986
85 1 0.602676 0.326281 0.289951
86 3 0.574374 0.354921 0.229113
87 4 0.63654 0.302964 0.269824
88 1 0.511516 0.320268 0.21897
89 3 0.455457 0.363332 0.218986
90 4 0.492747 0.282239 0.206578
91 1 0.451357 0.376263 0.300225
92 3 0.456064 0.446156 0.295297
93 4 0.449786 0.36661 0.348969
94 1 0.529867 0.45397 0.299696
95 3 0.527524 0.500617 0.242152
96 4 0.571964 0.45051 0.315518
97 1 0.532505 0.459283 0.178315
98 3 0.487703 0.499553 0.1436
99 4 0.542005 0.425052 0.148685
100 1 0.422469 0.471818 0.165627
101 3 0.384014 0.524446 0.184762
102 4 0.392465 0.438726 0.163931
103 1 0.410557 0.532906 0.26162
104 3 0.425048 0.598382 0.273014
105 4 0.418423 0.519336 0.30825
106 1 0.487412 0.60294 0.231789
107 3 0.51476 0.624933 0.163348
108 4 0.52327 0.60094 0.265123
109 1 0.5562 0.570491 0.143898
110 3 0.626955 0.575164 0.147059
111 4 0.552388 0.60159 0.111295
112 1 0.638942 0.560603 0.224049
113 3 0.683382 0.610987 0.236446
114 4 0.671982 0.538535 0.200786
115 1 0.638834 0.663176 0.256752
116 3 0.603775 0.66626 0.321144
117 4 0.615388 0.690191 0.227601
118 1 0.655758 0.684196 0.372278
119 3 0.62732 0.729609 0.420706
120 4 0.697876 0.686333 0.39287
121 1 0.613124 0.780043 0.366063
122 3 0.551112 0.808761 0.342982
123 4 0.637135 0.809785 0.342063
124 1 0.514214 0.75049 0.322394
125 3 0.483844 0.751475 0.39339
126 4 0.504695 0.710368 0.305381
127 1 0.422441 0.789431 0.371078
128 3 0.38048 0.807874 0.312005
129 4 0.430106 0.826434 0.395803
130 1 0.315551 0.784874 0.346188
131 3 0.288634 0.793805 0.417657
132 4 0.304598 0.74756 0.328206
133 1 0.229926 0.831986 0.402796
134 3 0.178168 0.798005 0.368388
135 4 0.218591 0.8732 0.395024
136 1 0.141538 0.77774 0.43645
137 3 0.101398 0.830539 0.454571
138 4 0.14326 0.754348 0.476163