LAMMPS protain data file

         195  atoms
         258  bonds
           0  angles
           0  dihedrals
           0  impropers

           5  atom types
           5  bond types
           0  angle types
           0  dihedral types
           0  improper types

-200.0	200.0	xlo xhi
-200.0	200.0	ylo yhi
-200.0	200.0	zlo zhi

Masses

           1	27.0
           2	14.0
           3	28.0
           4	60.0
           5	60.0

Atoms

           1	1	1	1	0.0	11.9119997	-37.06600189	4.59800005
           2	1	1	3	0.0	12.86800003	-34.84899902	4.46999979
           3	1	1	4	0.0	11.34300041	-37.90499878	5.73400021
           4	1	2	1	0.0	10.76399994	-33.73899841	6.03800011
           5	1	2	3	0.0	8.39099979	-33.65499878	5.55600023
           6	1	2	4	0.0	11.42399979	-32.83399963	4.98899984
           7	1	3	1	0.0	7.84499979	-32.22399902	7.93400002
           8	1	3	3	0.0	8.93200016	-30.14299965	8.43299961
           9	1	3	4	0.0	7.27400017	-32.52600098	9.29699993
          10	1	4	1	0.0	7.39400005	-28.74399948	6.50500011
          11	1	4	3	0.0	6.23099995	-26.68300056	6.53700018
          12	1	4	4	0.0	7.88000011	-28.67399979	4.99599981
          13	1	5	1	0.0	3.7980001	-27.83799934	7.30600023
          14	1	5	3	0.0	2.99699998	-29.67499924	8.60000038
          15	1	5	4	0.0	3.00999999	-27.69499969	6.04500008
          16	1	6	1	0.0	1.61899996	-27.91799927	10.39299965
          17	1	6	3	0.0	-0.271	-26.67300034	11.20400047
          18	1	6	4	0.0	2.33500004	-27.41699982	11.65400028
          19	1	7	1	0.0	-1.97500002	-27.64299965	9.14700031
          20	1	7	3	0.0	-3.81800008	-27.15299988	10.57800007
          21	1	7	4	0.0	-2.42700005	-28.58300018	8.02900028
          22	1	8	1	0.0	-3.14400005	-29.18799973	12.4289999
          23	1	8	3	0.0	-3.68899989	-28.20199966	14.53100014
          24	1	8	4	0.0	-2.56699991	-30.43799973	13.09799957
          25	1	9	1	0.0	-1.98399997	-26.00799942	14.14299965
          26	1	9	3	0.0	-2.83599997	-24.0189991	14.98900032
          27	1	9	4	0.0	-0.479	-25.68499947	14.14400005
          28	1	10	1	0.0	-4.454	-23.42900085	12.78299999
          29	1	10	3	0.0	-6.04500008	-24.38299942	14.31999969
          30	1	10	4	0.0	-5.16099977	-23.33799934	11.43599987
          31	1	11	1	0.0	-6.29300022	-21.95599937	15.77200031
          32	1	11	3	0.0	-6.27199984	-21.57900047	18.12899971
          33	1	11	5	0.0	-5.43300009	-20.20203462	14.99152794
          34	1	12	1	0.0	-3.89599991	-23.07900047	18.50600052
          35	1	12	3	0.0	-2.67000008	-21.04500008	18.07799911
          36	1	12	4	0.0	-3.02600002	-24.32999992	18.39299965
          37	1	13	1	0.0	-1.87899995	-20.77300072	20.76000023
          38	1	13	3	0.0	-0.049	-22.05699921	19.81200027
          39	1	13	4	0.0	-1.96200001	-20.75099945	22.27599907
          40	1	14	1	0.0	1.71700001	-19.83499908	20.00300026
          41	1	14	3	0.0	3.42499995	-21.42700005	20.49500084
          42	1	14	4	0.0	2.26799989	-18.40399933	19.9829998
          43	1	15	1	0.0	2.70099998	-21.66399956	23.22200012
          44	1	15	3	0.0	3.54399991	-23.90600014	22.77400017
          45	1	15	4	0.0	2.12100005	-21.375	24.5909996
          46	1	16	1	0.0	0.995	-24.86700058	22.1079998
          47	1	16	3	0.0	2.4230001	-26.20100021	20.73999977
          48	1	16	4	0.0	-0.48199999	-25.12000084	21.88100052
          49	1	17	1	0.0	2.30100012	-24.45000076	18.52799988
          50	1	17	3	0.0	4.3499999	-25.39599991	17.75699997
          51	1	17	4	0.0	1.83000004	-23.34499931	17.59499931
          52	1	18	1	0.0	5.96199989	-23.95100021	19.58200073
          53	1	18	3	0.0	7.2579999	-26.03800011	19.34900093
          54	1	18	4	0.0	6.43400002	-23.12199974	20.77599907
          55	1	19	1	0.0	5.84499979	-27.16799927	21.58399963
          56	1	19	3	0.0	6.48000002	-29.29999924	20.7329998
          57	1	19	4	0.0	4.73699999	-27.33600044	22.62899971
          58	1	20	1	0.0	4.60400009	-29.21899986	18.61499977
          59	1	20	3	0.0	6.35200024	-30.17399979	17.28199959
          60	1	20	4	0.0	3.19000006	-29.14999962	18.01799965
          61	1	21	1	0.0	6.94999981	-27.73900032	16.03199959
          62	1	21	3	0.0	9.02299976	-28.87800026	15.76500034
          63	1	21	4	0.0	7.01200008	-26.27400017	15.50500011
          64	1	22	1	0.0	9.98200035	-28.21699905	18.29299927
          65	1	22	3	0.0	11.24699974	-30.26799965	18.39299965
          66	1	22	4	0.0	10.26299953	-27.40500069	19.55400085
          67	1	23	1	0.0	8.89099979	-31.82500076	18.77400017
          68	1	23	3	0.0	10.20699978	-33.2879982	17.40200043
          69	1	23	4	0.0	7.47399998	-32.23400116	19.15299988
          70	1	24	1	0.0	8.9289999	-32.38299942	14.9989996
          71	1	24	3	0.0	10.57199955	-32.41400146	13.26599979
          72	1	24	4	0.0	7.73899984	-32.00799942	14.10099983
          73	1	25	1	0.0	11.76200008	-29.98800087	14.11499977
          74	1	25	3	0.0	12.45199966	-28.08300018	15.43799973
          75	1	25	4	0.0	11.26399994	-29.0359993	13.05000019
          76	1	26	1	0.0	14.18299961	-29.65399933	17.03300095
          77	1	26	3	0.0	15.46000004	-27.79299927	17.73900032
          78	1	26	4	0.0	14.98200035	-30.90200043	17.43400002
          79	1	27	1	0.0	16.35400009	-27.12899971	15.13099957
          80	1	27	3	0.0	16.27099991	-24.9109993	14.17300034
          81	1	27	4	0.0	17.24799919	-27.54599953	13.95199966
          82	1	28	1	0.0	13.47999954	-24.80999947	14.15999985
          83	1	28	3	0.0	13.97799969	-23.5	16.19099998
          84	1	28	4	0.0	12.00599957	-25.1779995	14.17700005
          85	1	29	1	0.0	13.93400002	-21.07900047	14.63000011
          86	1	29	3	0.0	12.125	-20.29700089	13.25500011
          87	1	29	4	0.0	15.04199982	-20.28000069	13.97099972
          88	1	30	1	0.0	10.40600014	-19.875	15.48099995
          89	1	30	3	0.0	10.80700016	-17.68600082	16.38899994
          90	1	30	4	0.0	9.58699989	-20.54899979	16.63999939
          91	1	31	1	0.0	9.35000038	-16.42900085	14.24800014
          92	1	31	3	0.0	7.07299995	-16.95899963	13.68700027
          93	1	31	4	0.0	9.96199989	-15.9630003	12.88199997
          94	1	32	1	0.0	6.02099991	-14.88300037	15.31499958
          95	1	32	3	0.0	6.16800022	-12.52400017	15.23600006
          96	1	32	4	0.0	5.78100014	-14.85299969	16.84399986
          97	1	33	1	0.0	4.43400002	-12.28600025	13.00599957
          98	1	33	3	0.0	2.20900011	-13.20899963	12.82900047
          99	1	33	4	0.0	5.08500004	-12.2670002	11.62899971
         100	1	34	1	0.0	0.98799998	-10.6789999	12.71700001
         101	1	34	3	0.0	1.38199997	-10.8409996	10.36600018
         102	1	34	4	0.0	0.884	-9.16100025	12.90999985
         103	1	35	1	0.0	-1.16199994	-11.85200024	9.75199986
         104	1	35	3	0.0	-1.52199996	-9.50899982	9.48499966
         105	1	35	4	0.0	-2.61299992	-12.38000011	9.77200031
         106	1	36	1	0.0	-0.75	-9.52200031	6.75899982
         107	1	36	3	0.0	0.77499998	-7.92199993	5.87900019
         108	1	36	5	0.0	-0.79900002	-8.21197523	5.55809505
         109	1	37	1	0.0	3.02600002	-9.02400017	7.22100019
         110	1	37	3	0.0	3.72300005	-10.70499992	5.57700014
         111	1	37	4	0.0	3.83500004	-9.37899971	8.5340004
         112	1	38	1	0.0	5.13899994	-8.81900024	4.06400013
         113	1	38	3	0.0	7.24900007	-8.2670002	5.04300022
         114	1	38	4	0.0	5.02899981	-7.57399988	3.11400008
         115	1	39	1	0.0	8.37899971	-10.77400017	4.49100018
         116	1	39	3	0.0	8.87800026	-10.58699989	2.1329999
         117	1	39	4	0.0	8.27999973	-12.14299965	5.19399977
         118	1	40	1	0.0	11.67300034	-10.82600021	2.56999993
         119	1	40	3	0.0	11.71000004	-13.23600006	2.58800006
         120	1	40	4	0.0	13.07499981	-10.43599987	3.17700005
         121	1	41	1	0.0	11.78999996	-13.42300034	-0.23100001
         122	1	41	3	0.0	13.18200016	-15.24600029	-0.92000002
         123	1	41	4	0.0	11.48700047	-13.04399967	-1.66700006
         124	1	42	1	0.0	14.63000011	-15.34799957	1.47300005
         125	1	42	3	0.0	13.46399975	-16.64100075	3.12899995
         126	1	42	4	0.0	15.55300045	-14.67000008	2.49499989
         127	1	43	1	0.0	14.2510004	-19.11599922	2.02999997
         128	1	43	3	0.0	16.32600021	-20.09600067	2.65300012
         129	1	43	4	0.0	14.14999962	-20.07900047	0.81400001
         130	1	44	1	0.0	15.53899956	-20.6439991	5.29899979
         131	1	44	3	0.0	13.8920002	-21.88599968	6.58599997
         132	1	44	4	0.0	15.85400009	-19.6760006	6.44000006
         133	1	45	1	0.0	15.19400024	-24.35700035	6.00299978
         134	1	45	3	0.0	14.08199978	-25.40999985	7.83900023
         135	1	45	4	0.0	16.21299934	-25.31399918	5.26399994
         136	1	46	1	0.0	15.5	-24.0510006	9.80900002
         137	1	46	3	0.0	14.34000015	-23.22100067	11.71399975
         138	1	46	4	0.0	16.84499931	-23.91399956	10.53499985
         139	1	47	1	0.0	12.91800022	-21.30900002	10.14099979
         140	1	47	3	0.0	11.07400036	-22.24500084	8.97399998
         141	1	47	4	0.0	13.13000011	-20.01600075	9.3210001
         142	1	48	1	0.0	9.23999977	-21.55500031	11.07900047
         143	1	48	3	0.0	8.56999969	-19.90600014	12.71000004
         144	1	48	4	0.0	8.73999977	-22.72100067	11.95100021
         145	1	49	1	0.0	7.13000011	-18.38899994	10.85299969
         146	1	49	3	0.0	5.05700016	-19.49200058	10.56000042
         147	1	49	4	0.0	7.00099993	-17.53800011	9.56999969
         148	1	50	1	0.0	3.88100004	-18.32600021	12.86400032
         149	1	50	3	0.0	3.62899995	-15.96500015	13.05599976
         150	1	50	4	0.0	3.89299989	-18.67300034	14.35299969
         151	1	51	1	0.0	1.25399995	-15.87100029	11.53199959
         152	1	51	3	0.0	-0.78799999	-16.79899979	12.46700001
         153	1	51	4	0.0	0.92299998	-15.76799965	10.04699993
         154	1	52	1	0.0	-0.89300001	-14.80700016	14.47999954
         155	1	52	3	0.0	-1.79100001	-12.70600033	13.59799957
         156	1	52	4	0.0	-0.182	-14.79399967	15.84899998
         157	1	53	1	0.0	-4.23799992	-13.10700035	15.07900047
         158	1	53	3	0.0	-3.07399988	-12.35099983	17.05800056
         159	1	53	4	0.0	-5.51399994	-13.95800018	15.06200027
         160	1	54	1	0.0	-5.09700012	-10.43799973	17.68000031
         161	1	54	3	0.0	-4.58900023	-10.3760004	20.01499939
         162	1	54	4	0.0	-6.45599985	-9.72900009	17.72999954
         163	1	55	1	0.0	-5.20100021	-13.05500031	20.43700027
         164	1	55	3	0.0	-3.85100007	-14.71800041	21.48999977
         165	1	55	4	0.0	-6.54400015	-13.7329998	20.70199966
         166	1	56	1	0.0	-1.954	-14.75399971	19.38599968
         167	1	56	3	0.0	-1.53799999	-17.06200027	19.6420002
         168	1	56	4	0.0	-1.11800003	-14.67000008	20.67499924
         169	1	57	1	0.0	-3.59800005	-17.86300087	17.85400009
         170	1	57	3	0.0	-2.89599991	-16.9489994	15.80900002
         171	1	57	4	0.0	-5.10099983	-18.13199997	17.94799995
         172	1	58	1	0.0	-2.18499994	-19.43300056	14.66699982
         173	1	58	3	0.0	-4.32200003	-20.00900078	13.76200008
         174	1	58	4	0.0	-1.47800004	-20.80999947	14.45699978
         175	1	59	1	0.0	-4.21400023	-17.96699905	11.80900002
         176	1	59	3	0.0	-5.05499983	-18.63500023	9.66899967
         177	1	59	4	0.0	-4.22900009	-16.4279995	11.72599983
         178	1	60	1	0.0	-2.59699988	-19.76300049	8.85700035
         179	1	60	3	0.0	-1.08299994	-21.00900078	10.22599983
         180	1	60	4	0.0	-1.92799997	-18.87199974	7.82299995
         181	1	61	1	0.0	-0.84899998	-23.11100006	8.36200047
         182	1	61	3	0.0	1.125	-22.17499924	7.42999983
         183	1	61	4	0.0	-1.05400002	-24.09499931	7.18300009
         184	1	62	1	0.0	2.71399999	-22.87100029	9.68700027
         185	1	62	3	0.0	3.10700011	-24.86499977	8.39799976
         186	1	62	4	0.0	2.96600008	-23.30599976	11.13000011
         187	1	63	1	0.0	5.39499998	-23.82299995	7.12900019
         188	1	63	3	0.0	7.11399984	-22.26300049	7.68900013
         189	1	63	4	0.0	4.93300009	-23.50099945	5.69799995
         190	1	64	1	0.0	9.18999958	-23.99600029	6.82800007
         191	1	64	3	0.0	8.98499966	-23.00900078	4.63999987
         192	1	64	4	0.0	10.00399971	-25.29700089	6.63199997
         193	1	65	1	0.0	11.02600002	-21.17399979	5.05700016
         194	1	65	3	0.0	10.79800034	-19.54100037	6.71400023
         195	1	65	5	0.0	10.55099964	-19.74119902	3.414426

Bond Coeffs

           1	200.0	3.77
           2	200.0	2.41
           3	200.0	2.50
           4	200.0	1.54
           5	200.0	1.54
Bonds

           1	2	1	2
           2	4	1	3
           3	1	1	4
           4	3	2	4
           5	2	4	5
           6	4	4	6
           7	1	4	7
           8	3	5	7
           9	2	7	8
          10	4	7	9
          11	1	7	10
          12	3	8	10
          13	2	10	11
          14	4	10	12
          15	1	10	13
          16	3	11	13
          17	2	13	14
          18	4	13	15
          19	1	13	16
          20	3	14	16
          21	2	16	17
          22	4	16	18
          23	1	16	19
          24	3	17	19
          25	2	19	20
          26	4	19	21
          27	1	19	22
          28	3	20	22
          29	2	22	23
          30	4	22	24
          31	1	22	25
          32	3	23	25
          33	2	25	26
          34	4	25	27
          35	1	25	28
          36	3	26	28
          37	2	28	29
          38	4	28	30
          39	1	28	31
          40	3	29	31
          41	2	31	32
          42	5	31	33
          43	1	31	34
          44	3	32	34
          45	2	34	35
          46	4	34	36
          47	1	34	37
          48	3	35	37
          49	2	37	38
          50	4	37	39
          51	1	37	40
          52	3	38	40
          53	2	40	41
          54	4	40	42
          55	1	40	43
          56	3	41	43
          57	2	43	44
          58	4	43	45
          59	1	43	46
          60	3	44	46
          61	2	46	47
          62	4	46	48
          63	1	46	49
          64	3	47	49
          65	2	49	50
          66	4	49	51
          67	1	49	52
          68	3	50	52
          69	2	52	53
          70	4	52	54
          71	1	52	55
          72	3	53	55
          73	2	55	56
          74	4	55	57
          75	1	55	58
          76	3	56	58
          77	2	58	59
          78	4	58	60
          79	1	58	61
          80	3	59	61
          81	2	61	62
          82	4	61	63
          83	1	61	64
          84	3	62	64
          85	2	64	65
          86	4	64	66
          87	1	64	67
          88	3	65	67
          89	2	67	68
          90	4	67	69
          91	1	67	70
          92	3	68	70
          93	2	70	71
          94	4	70	72
          95	1	70	73
          96	3	71	73
          97	2	73	74
          98	4	73	75
          99	1	73	76
         100	3	74	76
         101	2	76	77
         102	4	76	78
         103	1	76	79
         104	3	77	79
         105	2	79	80
         106	4	79	81
         107	1	79	82
         108	3	80	82
         109	2	82	83
         110	4	82	84
         111	1	82	85
         112	3	83	85
         113	2	85	86
         114	4	85	87
         115	1	85	88
         116	3	86	88
         117	2	88	89
         118	4	88	90
         119	1	88	91
         120	3	89	91
         121	2	91	92
         122	4	91	93
         123	1	91	94
         124	3	92	94
         125	2	94	95
         126	4	94	96
         127	1	94	97
         128	3	95	97
         129	2	97	98
         130	4	97	99
         131	1	97	100
         132	3	98	100
         133	2	100	101
         134	4	100	102
         135	1	100	103
         136	3	101	103
         137	2	103	104
         138	4	103	105
         139	1	103	106
         140	3	104	106
         141	2	106	107
         142	5	106	108
         143	1	106	109
         144	3	107	109
         145	2	109	110
         146	4	109	111
         147	1	109	112
         148	3	110	112
         149	2	112	113
         150	4	112	114
         151	1	112	115
         152	3	113	115
         153	2	115	116
         154	4	115	117
         155	1	115	118
         156	3	116	118
         157	2	118	119
         158	4	118	120
         159	1	118	121
         160	3	119	121
         161	2	121	122
         162	4	121	123
         163	1	121	124
         164	3	122	124
         165	2	124	125
         166	4	124	126
         167	1	124	127
         168	3	125	127
         169	2	127	128
         170	4	127	129
         171	1	127	130
         172	3	128	130
         173	2	130	131
         174	4	130	132
         175	1	130	133
         176	3	131	133
         177	2	133	134
         178	4	133	135
         179	1	133	136
         180	3	134	136
         181	2	136	137
         182	4	136	138
         183	1	136	139
         184	3	137	139
         185	2	139	140
         186	4	139	141
         187	1	139	142
         188	3	140	142
         189	2	142	143
         190	4	142	144
         191	1	142	145
         192	3	143	145
         193	2	145	146
         194	4	145	147
         195	1	145	148
         196	3	146	148
         197	2	148	149
         198	4	148	150
         199	1	148	151
         200	3	149	151
         201	2	151	152
         202	4	151	153
         203	1	151	154
         204	3	152	154
         205	2	154	155
         206	4	154	156
         207	1	154	157
         208	3	155	157
         209	2	157	158
         210	4	157	159
         211	1	157	160
         212	3	158	160
         213	2	160	161
         214	4	160	162
         215	1	160	163
         216	3	161	163
         217	2	163	164
         218	4	163	165
         219	1	163	166
         220	3	164	166
         221	2	166	167
         222	4	166	168
         223	1	166	169
         224	3	167	169
         225	2	169	170
         226	4	169	171
         227	1	169	172
         228	3	170	172
         229	2	172	173
         230	4	172	174
         231	1	172	175
         232	3	173	175
         233	2	175	176
         234	4	175	177
         235	1	175	178
         236	3	176	178
         237	2	178	179
         238	4	178	180
         239	1	178	181
         240	3	179	181
         241	2	181	182
         242	4	181	183
         243	1	181	184
         244	3	182	184
         245	2	184	185
         246	4	184	186
         247	1	184	187
         248	3	185	187
         249	2	187	188
         250	4	187	189
         251	1	187	190
         252	3	188	190
         253	2	190	191
         254	4	190	192
         255	1	190	193
         256	3	191	193
         257	2	193	194
         258	5	193	195

