ITEM: TIMESTEP
0
ITEM: NUMBER OF ATOMS
195
ITEM: BOX BOUNDS ss ss ss
-6.584 17.288
-37.945 -7.534
-1.707 24.631
ITEM: ATOMS id type xs ys zs
1 1 0.774799 0.0289039 0.239388
2 3 0.814846 0.101805 0.234528
3 4 0.750964 0.00131531 0.28252
4 1 0.726709 0.138305 0.294062
5 3 0.627304 0.141067 0.275761
6 4 0.754357 0.168064 0.254233
7 1 0.604432 0.188123 0.366049
8 3 0.649967 0.256552 0.384995
9 4 0.580513 0.178192 0.417799
10 1 0.58554 0.302555 0.311793
11 3 0.536821 0.370326 0.313008
12 4 0.605898 0.304857 0.254499
13 1 0.434903 0.332347 0.342205
14 3 0.401349 0.271941 0.391336
15 4 0.401893 0.337049 0.294328
16 1 0.343624 0.329716 0.459412
17 3 0.264452 0.370655 0.490204
18 4 0.373618 0.346191 0.50729
19 1 0.193071 0.338759 0.412104
20 3 0.115868 0.354872 0.466436
21 4 0.174137 0.307849 0.369656
22 1 0.144102 0.287955 0.536715
23 3 0.121272 0.320377 0.616524
24 4 0.168272 0.246851 0.562116
25 1 0.192694 0.392522 0.601792
26 3 0.157004 0.457926 0.633913
27 4 0.255739 0.403144 0.60183
28 1 0.0892259 0.477327 0.550156
29 3 0.0225788 0.445957 0.608512
30 4 0.0596096 0.48032 0.499013
31 1 0.01219 0.525764 0.663642
32 3 0.0130697 0.53816 0.753132
33 5 0.0482155 0.583439 0.634009
34 1 0.112601 0.488836 0.767446
35 3 0.163958 0.55572 0.751196
36 4 0.149045 0.4477 0.763156
37 1 0.197093 0.564664 0.853026
38 3 0.273752 0.522443 0.817032
39 4 0.193616 0.565388 0.910585
40 1 0.34773 0.595508 0.824284
41 3 0.419278 0.543159 0.842965
42 4 0.370811 0.642564 0.823525
43 1 0.388949 0.535365 0.946503
44 3 0.424263 0.461642 0.929494
45 4 0.364653 0.544869 0.998481
46 1 0.317485 0.430042 0.904207
47 3 0.377304 0.386176 0.852267
48 4 0.255613 0.421722 0.895588
49 1 0.372193 0.443754 0.768282
50 3 0.458026 0.412647 0.739008
51 4 0.352463 0.480089 0.732857
52 1 0.525553 0.460162 0.8083
53 3 0.579843 0.391536 0.799453
54 4 0.545325 0.487422 0.853634
55 1 0.520652 0.354378 0.884312
56 3 0.547252 0.284272 0.852001
57 4 0.474238 0.348854 0.923988
58 1 0.468666 0.286936 0.771585
59 3 0.54189 0.255533 0.720973
60 4 0.409434 0.289205 0.748918
61 1 0.56694 0.335602 0.673514
62 3 0.653778 0.298149 0.663376
63 4 0.569538 0.383776 0.653504
64 1 0.693951 0.319884 0.759359
65 3 0.746942 0.252442 0.763156
66 4 0.705722 0.346585 0.807237
67 1 0.648249 0.201243 0.777622
68 3 0.703376 0.153135 0.72553
69 4 0.588891 0.187794 0.792012
70 1 0.649841 0.182894 0.634293
71 3 0.718666 0.181875 0.568494
72 4 0.599992 0.195225 0.600197
73 1 0.768515 0.261649 0.600729
74 3 0.79742 0.324291 0.650961
75 4 0.747654 0.292953 0.560293
76 1 0.869931 0.272632 0.71152
77 3 0.923425 0.333827 0.738325
78 4 0.903402 0.231594 0.726745
79 1 0.960875 0.355661 0.639304
80 3 0.957398 0.428595 0.602931
81 4 0.998324 0.341949 0.59454
82 1 0.840483 0.431916 0.602438
83 3 0.861344 0.474993 0.67955
84 4 0.778737 0.419815 0.603083
85 1 0.859501 0.554602 0.620282
86 3 0.783722 0.580316 0.568077
87 4 0.905915 0.580875 0.595262
88 1 0.711712 0.594193 0.652593
89 3 0.72851 0.666173 0.687068
90 4 0.677405 0.57203 0.696598
91 1 0.667477 0.707507 0.605779
92 3 0.572093 0.690079 0.584479
93 4 0.693113 0.722831 0.553915
94 1 0.528024 0.758344 0.646291
95 3 0.534182 0.835915 0.643291
96 4 0.517971 0.759331 0.704344
97 1 0.461545 0.843741 0.558623
98 3 0.368339 0.81339 0.551902
99 4 0.488815 0.844366 0.506341
100 1 0.317192 0.896583 0.54765
101 3 0.333696 0.891256 0.458387
102 4 0.312835 0.9465 0.554978
103 1 0.227128 0.858012 0.435075
104 3 0.212048 0.935056 0.424937
105 4 0.166346 0.84065 0.435834
106 1 0.244387 0.934629 0.321437
107 3 0.308269 0.987241 0.288025
108 5 0.242334 0.977706 0.275841
109 1 0.402564 0.951005 0.338978
110 3 0.431761 0.895729 0.276559
111 4 0.436453 0.939331 0.38883
112 1 0.491077 0.957746 0.219113
113 3 0.579466 0.975897 0.256284
114 4 0.48647 0.998685 0.183044
115 1 0.626801 0.89346 0.235325
116 3 0.647704 0.899609 0.145797
117 4 0.622654 0.848443 0.262017
118 1 0.764787 0.89175 0.162389
119 3 0.766337 0.812502 0.163072
120 4 0.823517 0.904574 0.185435
121 1 0.769688 0.806353 0.0560407
122 3 0.827999 0.746408 0.0298808
123 4 0.756996 0.818816 0.00151872
124 1 0.888656 0.743054 0.120738
125 3 0.839812 0.700536 0.183613
126 4 0.927321 0.765348 0.159541
127 1 0.87278 0.619151 0.141886
128 3 0.959702 0.586926 0.16554
129 4 0.868549 0.587485 0.0957172
130 1 0.926734 0.568906 0.266003
131 3 0.857741 0.528065 0.314868
132 4 0.93993 0.600737 0.309325
133 1 0.912282 0.446812 0.292733
134 3 0.8657 0.412186 0.362442
135 4 0.954968 0.415343 0.264675
136 1 0.925101 0.456874 0.437239
137 3 0.876508 0.484167 0.509568
138 4 0.981443 0.461379 0.464804
139 1 0.81694 0.547039 0.449844
140 3 0.739695 0.516261 0.405536
141 4 0.825821 0.589556 0.418711
142 1 0.662869 0.53895 0.485458
143 3 0.634802 0.593173 0.547384
144 4 0.641924 0.500608 0.518566
145 1 0.574481 0.643057 0.476878
146 3 0.487642 0.606787 0.465753
147 4 0.569077 0.67104 0.428165
148 1 0.43838 0.645128 0.553231
149 3 0.427823 0.722765 0.560521
150 4 0.438882 0.633718 0.609765
151 1 0.328334 0.725856 0.502658
152 3 0.242795 0.69534 0.538158
153 4 0.314469 0.729243 0.446275
154 1 0.238396 0.760843 0.614587
155 3 0.200779 0.82993 0.5811
156 4 0.26818 0.761271 0.666565
157 1 0.0982741 0.816744 0.63733
158 3 0.147034 0.841603 0.712469
159 4 0.0448224 0.788761 0.636685
160 1 0.0622906 0.904508 0.736085
161 3 0.0835707 0.906547 0.82474
162 4 0.00536194 0.927822 0.737983
163 1 0.057934 0.818454 0.840762
164 3 0.114486 0.76377 0.880743
165 4 0.0016756 0.796159 0.850824
166 1 0.193951 0.762586 0.800858
167 3 0.211377 0.686692 0.810578
168 4 0.228971 0.765348 0.849799
169 1 0.125084 0.660353 0.742691
170 3 0.154491 0.690408 0.665047
171 4 0.062123 0.651508 0.74626
172 1 0.184274 0.608727 0.621687
173 3 0.0947554 0.589787 0.587326
174 4 0.213891 0.563447 0.613714
175 1 0.0992795 0.656933 0.513175
176 3 0.0640499 0.634968 0.431923
177 4 0.0986511 0.70754 0.510024
178 1 0.167016 0.597876 0.401093
179 3 0.230437 0.556904 0.453072
180 4 0.19504 0.627174 0.361835
181 1 0.24024 0.487784 0.382299
182 3 0.322931 0.518562 0.346913
183 4 0.231652 0.455427 0.337535
184 1 0.389494 0.495676 0.432607
185 3 0.405957 0.430108 0.383666
186 4 0.40005 0.481372 0.487395
187 1 0.501801 0.464371 0.335485
188 3 0.57381 0.515669 0.356747
189 4 0.482448 0.47496 0.281153
190 1 0.660774 0.458683 0.324057
191 3 0.652187 0.491138 0.240983
192 4 0.694873 0.415902 0.316615
193 1 0.737684 0.551478 0.256815
194 3 0.728133 0.605176 0.319728
195 5 0.717787 0.598593 0.19445
ITEM: TIMESTEP
1000
ITEM: NUMBER OF ATOMS
195
ITEM: BOX BOUNDS ss ss ss
-6.584 17.288
-37.945 -7.534
-1.707 24.631
ITEM: ATOMS id type xs ys zs
1 1 0.754653 -0.0190355 0.285503
2 3 0.788315 0.0372061 0.343449
3 4 0.720301 -0.0508188 0.320085
4 1 0.718241 0.0988125 0.329656
5 3 0.630652 0.121585 0.300918
6 4 0.759905 0.128281 0.297077
7 1 0.592585 0.157237 0.384873
8 3 0.627946 0.229232 0.399054
9 4 0.568456 0.149525 0.438443
10 1 0.586592 0.268995 0.322281
11 3 0.52574 0.333034 0.316872
12 4 0.608655 0.271595 0.268197
13 1 0.437134 0.303985 0.349953
14 3 0.407136 0.258114 0.420407
15 4 0.396636 0.292222 0.30281
16 1 0.344476 0.315616 0.46553
17 3 0.26632 0.364026 0.466662
18 4 0.373655 0.340103 0.508054
19 1 0.197267 0.331661 0.408961
20 3 0.127003 0.348582 0.467648
21 4 0.173557 0.296042 0.373892
22 1 0.13562 0.293344 0.535667
23 3 0.120341 0.333421 0.611682
24 4 0.150197 0.248304 0.558201
25 1 0.195353 0.391504 0.600323
26 3 0.152099 0.46177 0.620475
27 4 0.255416 0.406597 0.594853
28 1 0.0889369 0.4707 0.545132
29 3 0.00675113 0.456388 0.596445
30 4 0.0545347 0.459919 0.497854
31 1 0.0172459 0.524029 0.653655
32 3 0.0132398 0.490606 0.734846
33 5 0.0424966 0.479597 0.666144
34 1 0.116553 0.49524 0.761304
35 3 0.171474 0.563074 0.756444
36 4 0.148311 0.454065 0.755242
37 1 0.198455 0.567175 0.849308
38 3 0.287481 0.531847 0.826899
39 4 0.192638 0.564232 0.905358
40 1 0.346078 0.598253 0.815505
41 3 0.430605 0.565114 0.856101
42 4 0.365115 0.646329 0.809745
43 1 0.389668 0.543445 0.936307
44 3 0.410195 0.461638 0.948151
45 4 0.369737 0.553994 0.991486
46 1 0.325572 0.43442 0.897756
47 3 0.369374 0.389865 0.831071
48 4 0.261274 0.430075 0.891733
49 1 0.373131 0.446535 0.761646
50 3 0.468389 0.424442 0.734167
51 4 0.35497 0.481738 0.723374
52 1 0.523967 0.46433 0.803039
53 3 0.576791 0.395885 0.80856
54 4 0.547307 0.496139 0.841855
55 1 0.523001 0.358034 0.879122
56 3 0.539184 0.285854 0.844946
57 4 0.479038 0.351375 0.922494
58 1 0.472377 0.29272 0.768707
59 3 0.532457 0.266484 0.699227
60 4 0.411129 0.292403 0.745196
61 1 0.569267 0.340768 0.666343
62 3 0.666237 0.317085 0.65485
63 4 0.569512 0.386138 0.64517
64 1 0.692404 0.322696 0.750012
65 3 0.737028 0.252205 0.763753
66 4 0.701498 0.348516 0.799919
67 1 0.65023 0.203881 0.766559
68 3 0.684424 0.153966 0.703197
69 4 0.591834 0.191625 0.784928
70 1 0.652684 0.190416 0.624461
71 3 0.732545 0.19288 0.569081
72 4 0.601981 0.201347 0.591871
73 1 0.771922 0.264638 0.592789
74 3 0.798739 0.318772 0.655673
75 4 0.748598 0.296995 0.554296
76 1 0.873856 0.276459 0.699769
77 3 0.934515 0.336706 0.716691
78 4 0.905389 0.237738 0.718213
79 1 0.960157 0.360552 0.630452
80 3 0.951598 0.433027 0.592799
81 4 0.999373 0.347815 0.583454
82 1 0.845947 0.440091 0.59729
83 3 0.830068 0.489934 0.666355
84 4 0.784577 0.423755 0.594141
85 1 0.8608 0.560378 0.615942
86 3 0.781726 0.592419 0.573149
87 4 0.905517 0.58728 0.591879
88 1 0.713903 0.600019 0.644268
89 3 0.719473 0.672144 0.675488
90 4 0.679725 0.579657 0.693118
91 1 0.666705 0.710442 0.605789
92 3 0.568847 0.697564 0.596123
93 4 0.688854 0.729174 0.555207
94 1 0.531449 0.761546 0.642004
95 3 0.538585 0.83874 0.625635
96 4 0.513295 0.760987 0.699177
97 1 0.466854 0.851686 0.559093
98 3 0.368728 0.83099 0.559712
99 4 0.489583 0.850248 0.504439
100 1 0.32471 0.904737 0.549658
101 3 0.328799 0.892199 0.458879
102 4 0.312753 0.952995 0.556511
103 1 0.229021 0.870728 0.437115
104 3 0.200957 0.942744 0.41168
105 4 0.171214 0.851125 0.442913
106 1 0.248316 0.944716 0.326864
107 3 0.315498 1.00698 0.337614
108 5 0.257083 0.920812 0.277402
109 1 0.402724 0.959831 0.33545
110 3 0.44158 0.911282 0.269146
111 4 0.43122 0.940972 0.386592
112 1 0.492874 0.966589 0.218811
113 3 0.586484 0.975608 0.255087
114 4 0.491805 1.01049 0.185333
115 1 0.625206 0.90189 0.235056
116 3 0.655094 0.903414 0.147525
117 4 0.619437 0.857365 0.261663
118 1 0.759383 0.900488 0.162657
119 3 0.761325 0.820801 0.15154
120 4 0.817379 0.911693 0.182974
121 1 0.772066 0.819483 0.0564036
122 3 0.864497 0.785621 0.0338383
123 4 0.765078 0.830834 -0.000239426
124 1 0.886628 0.747355 0.11533
125 3 0.830066 0.698441 0.166087
126 4 0.922539 0.771049 0.15264
127 1 0.872959 0.626309 0.138716
128 3 0.959005 0.599183 0.173247
129 4 0.86744 0.596238 0.0926311
130 1 0.926502 0.575784 0.260493
131 3 0.853874 0.522341 0.276719
132 4 0.937858 0.606464 0.303838
133 1 0.913024 0.456146 0.287318
134 3 0.886195 0.41638 0.362398
135 4 0.959513 0.42703 0.259993
136 1 0.924438 0.467608 0.42937
137 3 0.874135 0.499512 0.497316
138 4 0.984138 0.464564 0.454221
139 1 0.815687 0.555326 0.44927
140 3 0.735473 0.52928 0.411051
141 4 0.829941 0.596321 0.418168
142 1 0.660384 0.541736 0.478141
143 3 0.637515 0.603191 0.532444
144 4 0.644387 0.505356 0.513589
145 1 0.570927 0.645219 0.477309
146 3 0.481535 0.61937 0.467005
147 4 0.573902 0.67964 0.431269
148 1 0.437491 0.646689 0.548314
149 3 0.410095 0.720087 0.567369
150 4 0.435728 0.635374 0.601594
151 1 0.331579 0.734146 0.504233
152 3 0.245955 0.704488 0.543603
153 4 0.317129 0.738225 0.451613
154 1 0.236846 0.760083 0.615689
155 3 0.197594 0.828837 0.593357
156 4 0.26706 0.763787 0.665994
157 1 0.107239 0.825218 0.643146
158 3 0.152197 0.86495 0.710506
159 4 0.0513246 0.800216 0.644469
160 1 0.0672611 0.902281 0.748005
161 3 0.096905 0.889875 0.834072
162 4 0.0152731 0.932378 0.748975
163 1 0.0631517 0.812992 0.848581
164 3 0.132707 0.764414 0.881686
165 4 0.00737649 0.792625 0.856783
166 1 0.189045 0.752643 0.804355
167 3 0.191568 0.674381 0.795904
168 4 0.223073 0.752601 0.852495
169 1 0.120979 0.662422 0.730818
170 3 0.146572 0.689597 0.650674
171 4 0.0627592 0.655572 0.739403
172 1 0.186815 0.617657 0.613931
173 3 0.108041 0.602772 0.567307
174 4 0.215666 0.57327 0.60593
175 1 0.101954 0.670401 0.511596
176 3 0.0720525 0.644948 0.430155
177 4 0.0986469 0.721526 0.504234
178 1 0.162397 0.607195 0.397663
179 3 0.216274 0.555339 0.442434
180 4 0.195531 0.638854 0.360126
181 1 0.241742 0.501295 0.374855
182 3 0.327671 0.532554 0.347024
183 4 0.22807 0.476134 0.324972
184 1 0.389926 0.500004 0.416272
185 3 0.414132 0.4399 0.361031
186 4 0.400512 0.494375 0.474652
187 1 0.502823 0.473962 0.324025
188 3 0.583759 0.50356 0.365003
189 4 0.4915 0.495138 0.271986
190 1 0.656762 0.453303 0.327027
191 3 0.671983 0.492557 0.249878
192 4 0.680318 0.411316 0.317008
193 1 0.74835 0.543277 0.285781
194 3 0.777395 0.619947 0.294715
195 5 0.696297 0.557275 0.311741
ITEM: TIMESTEP
2000
ITEM: NUMBER OF ATOMS
195
ITEM: BOX BOUNDS ss ss ss
-7.51886 17.2219
-38.5126 -7.24169
-1.62041 24.803
ITEM: ATOMS id type xs ys zs
1 1 0.679658 0.0189198 0.305707
2 3 0.687648 0.0721992 0.370748
3 4 0.730888 -0.00274174 0.290931
4 1 0.718993 0.135117 0.314221
5 3 0.637264 0.173241 0.291958
6 4 0.747622 0.158423 0.271858
7 1 0.598338 0.180973 0.383004
8 3 0.622146 0.254068 0.393359
9 4 0.57889 0.170957 0.433508
10 1 0.576538 0.290347 0.320259
11 3 0.520688 0.353306 0.333934
12 4 0.591009 0.286934 0.263766
13 1 0.432179 0.316845 0.355676
14 3 0.399621 0.269429 0.419034
15 4 0.390501 0.313594 0.311613
16 1 0.354795 0.32167 0.478061
17 3 0.277264 0.365932 0.49432
18 4 0.383436 0.340045 0.522837
19 1 0.207437 0.331937 0.437473
20 3 0.132929 0.339727 0.49712
21 4 0.182811 0.302441 0.396753
22 1 0.164467 0.288759 0.563612
23 3 0.140732 0.332141 0.638075
24 4 0.185486 0.250577 0.588408
25 1 0.216582 0.385551 0.628874
26 3 0.196822 0.460051 0.633233
27 4 0.278124 0.395873 0.620754
28 1 0.110448 0.464202 0.583709
29 3 0.0249319 0.453028 0.629621
30 4 0.0775489 0.45642 0.533719
31 1 0.0398651 0.509694 0.69825
32 3 0.0475894 0.482669 0.781124
33 5 0.0144647 0.551526 0.677031
34 1 0.150146 0.490851 0.790737
35 3 0.197801 0.555755 0.778967
36 4 0.184343 0.450191 0.780333
37 1 0.235544 0.568869 0.862728
38 3 0.316253 0.533421 0.832886
39 4 0.233981 0.569891 0.92239
40 1 0.379996 0.596394 0.825852
41 3 0.451258 0.553481 0.857254
42 4 0.394663 0.643832 0.823924
43 1 0.429026 0.545911 0.947621
44 3 0.453963 0.473373 0.944393
45 4 0.403309 0.557283 0.99801
46 1 0.363372 0.443461 0.909914
47 3 0.393043 0.402182 0.840548
48 4 0.302242 0.436672 0.91238
49 1 0.403694 0.451976 0.769756
50 3 0.494689 0.42767 0.743743
51 4 0.380053 0.48821 0.736524
52 1 0.548016 0.469562 0.808717
53 3 0.610851 0.412089 0.824934
54 4 0.571359 0.508588 0.8336
55 1 0.550577 0.368665 0.88592
56 3 0.575075 0.305456 0.843373
57 4 0.508498 0.361665 0.928354
58 1 0.500336 0.298867 0.780357
59 3 0.552954 0.276079 0.708664
60 4 0.440589 0.302353 0.760868
61 1 0.589335 0.346007 0.676764
62 3 0.681713 0.31701 0.66431
63 4 0.585486 0.391642 0.65857
64 1 0.717129 0.333029 0.751926
65 3 0.755355 0.265979 0.771702
66 4 0.721954 0.35884 0.802565
67 1 0.671504 0.217793 0.769336
68 3 0.697163 0.160973 0.713612
69 4 0.619669 0.205204 0.795681
70 1 0.667909 0.195644 0.632651
71 3 0.751293 0.196179 0.583432
72 4 0.622406 0.212437 0.601255
73 1 0.779892 0.272327 0.595073
74 3 0.81381 0.32851 0.650153
75 4 0.764275 0.306535 0.559653
76 1 0.883575 0.287272 0.700207
77 3 0.948346 0.342137 0.714191
78 4 0.920043 0.251367 0.71987
79 1 0.969063 0.36931 0.62719
80 3 0.953174 0.439199 0.589734
81 4 1.00462 0.353507 0.58368
82 1 0.851746 0.44401 0.597064
83 3 0.86695 0.496117 0.662887
84 4 0.793268 0.429041 0.608796
85 1 0.865886 0.562291 0.611629
86 3 0.792569 0.600258 0.57172
87 4 0.910353 0.586469 0.584485
88 1 0.724761 0.599173 0.64014
89 3 0.740013 0.672408 0.662835
90 4 0.695229 0.578704 0.68545
91 1 0.681285 0.710115 0.598091
92 3 0.585274 0.697026 0.583803
93 4 0.705554 0.722139 0.546445
94 1 0.541685 0.754129 0.630617
95 3 0.558877 0.827605 0.603601
96 4 0.530881 0.757443 0.687649
97 1 0.477054 0.836281 0.545964
98 3 0.385293 0.814391 0.535576
99 4 0.505279 0.836395 0.494712
100 1 0.341201 0.88818 0.532
101 3 0.348436 0.885605 0.440744
102 4 0.333573 0.935132 0.541732
103 1 0.258513 0.854613 0.418007
104 3 0.233559 0.927189 0.397879
105 4 0.202594 0.836914 0.417362
106 1 0.283975 0.937035 0.316663
107 3 0.349251 0.995621 0.327311
108 5 0.290471 0.922862 0.262829
109 1 0.433833 0.950754 0.332086
110 3 0.485826 0.908734 0.273222
111 4 0.46107 0.933796 0.379585
112 1 0.521396 0.96279 0.214811
113 3 0.609189 0.971393 0.259282
114 4 0.517265 0.995416 0.175672
115 1 0.649746 0.901159 0.233692
116 3 0.67993 0.905124 0.147923
117 4 0.649259 0.856644 0.255878
118 1 0.779118 0.896097 0.160759
119 3 0.795773 0.821622 0.150751
120 4 0.835069 0.908748 0.185254
121 1 0.79842 0.818176 0.0545126
122 3 0.894557 0.806974 0.0524943
123 4 0.786919 0.829415 0.00172151
124 1 0.903326 0.749732 0.116174
125 3 0.854597 0.699344 0.16497
126 4 0.935066 0.777444 0.152743
127 1 0.894866 0.630283 0.134833
128 3 0.978501 0.612013 0.174121
129 4 0.890796 0.60272 0.0892381
130 1 0.943359 0.582249 0.258389
131 3 0.876186 0.533086 0.28896
132 4 0.953107 0.612403 0.302229
133 1 0.926594 0.464151 0.278316
134 3 0.876439 0.437329 0.349532
135 4 0.974199 0.434303 0.257652
136 1 0.936029 0.466532 0.420157
137 3 0.891371 0.50332 0.489883
138 4 0.990612 0.467565 0.443873
139 1 0.835013 0.556729 0.439715
140 3 0.75395 0.531496 0.398829
141 4 0.843363 0.598983 0.409317
142 1 0.683077 0.545112 0.466467
143 3 0.658749 0.605009 0.521155
144 4 0.665969 0.509935 0.502704
145 1 0.593092 0.644714 0.463372
146 3 0.506913 0.609851 0.457574
147 4 0.59759 0.679359 0.423893
148 1 0.458569 0.645222 0.533295
149 3 0.434416 0.714595 0.557552
150 4 0.45876 0.629411 0.589884
151 1 0.362445 0.729626 0.490275
152 3 0.279576 0.701442 0.529945
153 4 0.34816 0.733423 0.434454
154 1 0.265706 0.753458 0.597129
155 3 0.221696 0.8184 0.567021
156 4 0.294325 0.753505 0.648698
157 1 0.138558 0.818096 0.62261
158 3 0.168181 0.833505 0.70605
159 4 0.0868498 0.792082 0.614196
160 1 0.0971998 0.881314 0.739227
161 3 0.118137 0.864786 0.824441
162 4 0.0405255 0.905291 0.73998
163 1 0.0817132 0.787922 0.828443
164 3 0.143992 0.734065 0.849597
165 4 0.0305951 0.765691 0.832801
166 1 0.213928 0.742059 0.780014
167 3 0.231878 0.670427 0.752699
168 4 0.242922 0.729055 0.831016
169 1 0.146748 0.649482 0.707116
170 3 0.167885 0.682157 0.626416
171 4 0.0826225 0.64556 0.706901
172 1 0.208444 0.613791 0.584102
173 3 0.123436 0.607747 0.538963
174 4 0.234573 0.569629 0.571092
175 1 0.137592 0.669752 0.478994
176 3 0.118372 0.65268 0.391758
177 4 0.136229 0.718886 0.480097
178 1 0.210469 0.627195 0.364283
179 3 0.268583 0.573755 0.406386
180 4 0.237844 0.661125 0.330554
181 1 0.273748 0.523357 0.332001
182 3 0.363376 0.541574 0.313346
183 4 0.267552 0.499558 0.282136
184 1 0.415079 0.512782 0.386408
185 3 0.450189 0.452454 0.340118
186 4 0.426182 0.499806 0.441248
187 1 0.523518 0.489892 0.289762
188 3 0.604083 0.519487 0.323859
189 4 0.505897 0.506102 0.239592
190 1 0.677259 0.47346 0.290156
191 3 0.697014 0.514035 0.214823
192 4 0.708241 0.432708 0.280792
193 1 0.765335 0.563059 0.252229
194 3 0.744429 0.623275 0.202084
195 5 0.813257 0.53237 0.262923
