LAMMPS protain data file

         324  atoms
         430  bonds
           0  angles
           0  dihedrals
           0  impropers

           5  atom types
           5  bond types
           0  angle types
           0  dihedral types
           0  improper types

-200.0	200.0	xlo xhi
-200.0	200.0	ylo yhi
-200.0	200.0	zlo zhi

Masses

           1	27.0
           2	14.0
           3	28.0
           4	60.0
           5	60.0

Atoms

           1	1	1	1	0.0	17.99699974	38.57699966	42.79499817
           2	1	1	3	0.0	17.18000031	40.76300049	43.28099823
           3	1	1	4	0.0	17.7859993	38.5929985	41.27899933
           4	1	2	1	0.0	19.56800079	41.80500031	44.10900116
           5	1	2	3	0.0	21.48900032	42.11500168	42.70100021
           6	1	2	4	0.0	20.43000031	41.79999924	45.39599991
           7	1	3	1	0.0	20.30800056	43.99599838	41.10200119
           8	1	3	3	0.0	20.1420002	45.98099899	39.82500076
           9	1	3	4	0.0	20.0739994	43.22399902	39.8030014
          10	1	4	1	0.0	19.1779995	47.55599976	41.90599823
          11	1	4	3	0.0	21.15399933	47.94100189	43.19100189
          12	1	4	4	0.0	17.88899994	47.82799911	42.73699951
          13	1	5	1	0.0	21.28100014	50.59999847	42.7120018
          14	1	5	3	0.0	22.36400032	50.39199829	44.8370018
          15	1	5	4	0.0	21.19300079	52.02500153	42.24200058
          16	1	6	1	0.0	20.09600067	50.7179985	46.3219986
          17	1	6	3	0.0	21.14999962	49.25899887	47.9090004
          18	1	6	4	0.0	18.75600052	51.2820015	46.78300095
          19	1	7	1	0.0	20.12599945	46.94499969	46.82600021
          20	1	7	3	0.0	22.10499954	46.02600098	47.8390007
          21	1	7	5	0.0	19.91300011	42.93644411	44.33333611
          22	1	8	1	0.0	23.64900017	46.41500092	45.56200027
          23	1	8	3	0.0	25.44300079	46.85800171	47.07400131
          24	1	8	4	0.0	24.08699989	46.34500122	44.10900116
          25	1	9	1	0.0	25.06500053	49.56700134	47.19900131
          26	1	9	3	0.0	26.0510006	49.1570015	49.36199951
          27	1	9	4	0.0	24.4640007	50.97299957	47.06800079
          28	1	10	1	0.0	23.72599983	48.52399826	50.58200073
          29	1	10	3	0.0	24.93300056	46.98099899	51.93899918
          30	1	10	4	0.0	22.31500053	48.60900116	51.11199951
          31	1	11	1	0.0	24.88800049	44.90200043	50.14300156
          32	1	11	3	0.0	27.04899979	44.48099899	51.06200027
          33	1	11	4	0.0	24.43400002	43.9659996	49.03099823
          34	1	12	1	0.0	28.43199921	46.02399826	49.27799988
          35	1	12	3	0.0	29.99099922	46.25	51.11199951
          36	1	12	4	0.0	28.77599907	47.00099945	48.09999847
          37	1	13	1	0.0	28.83099937	48.36600113	52.22200012
          38	1	13	3	0.0	29.3409996	47.87400055	54.49200058
          39	1	13	4	0.0	28.18300056	49.73400116	52.4090004
          40	1	14	1	0.0	27.59600067	45.63800049	54.56600189
          41	1	14	3	0.0	28.98600006	44.00500107	55.5909996
          42	1	14	4	0.0	26.09900093	45.20299911	54.58499908
          43	1	15	1	0.0	29.08499908	42.37200165	53.25099945
          44	1	15	3	0.0	31.17900085	41.42300034	52.55400085
          45	1	15	4	0.0	28.20999908	41.50600052	52.34500122
          46	1	16	1	0.0	32.07699966	43.83200073	51.3769989
          47	1	16	3	0.0	33.47700119	42.49000168	49.97600174
          48	1	16	4	0.0	33.22399902	43.79700089	52.40000153
          49	1	17	1	0.0	31.24600029	41.62400055	48.41899872
          50	1	17	3	0.0	28.9640007	42.30899811	48.08100128
          51	1	17	4	0.0	31.42700005	40.15800095	48.84600067
          52	1	18	1	0.0	28.79000092	41.40599823	45.54299927
          53	1	18	3	0.0	28.35400009	39.16699982	46.34799957
          54	1	18	4	0.0	29.12599945	41.31999969	44.04800034
          55	1	19	1	0.0	25.70000076	39.23300171	45.95100021
          56	1	19	3	0.0	26.68199921	38.34400177	43.92200089
          57	1	19	4	0.0	24.31800079	39.77999878	45.65999985
          58	1	20	1	0.0	25.68400002	35.7179985	44.5320015
          59	1	20	3	0.0	25.5890007	34.6780014	42.36399841
          60	1	20	4	0.0	25.12599945	34.52399826	45.33800125
          61	1	21	1	0.0	23.98200035	36.56800079	41.25799942
          62	1	21	3	0.0	24.65999985	37.34799957	39.11600113
          63	1	21	4	0.0	22.61499977	37.23600006	41.11899948
          64	1	22	1	0.0	27.13299942	38.25699997	39.91999817
          65	1	22	3	0.0	28.75300026	36.52000046	40.34000015
          66	1	22	4	0.0	27.74399948	39.5019989	40.62200165
          67	1	23	1	0.0	29.84600067	36.67399979	37.77000046
          68	1	23	3	0.0	30.26000023	38.63100052	36.45100021
          69	1	23	4	0.0	29.46800041	35.47800064	36.84899902
          70	1	24	1	0.0	32.93099976	38.27099991	36.20899963
          71	1	24	3	0.0	32.29100037	37.03499985	34.25600052
          72	1	24	4	0.0	34.39599991	38.07300186	36.60100174
          73	1	25	1	0.0	33.33000183	38.85100174	32.4659996
          74	1	25	3	0.0	33.51300049	36.90100098	31.11599922
          75	1	25	4	0.0	33.95000076	40.05400085	31.74699974
          76	1	26	1	0.0	35.88299942	35.99100113	32.29299927
          77	1	26	3	0.0	35.06700134	33.7859993	31.79400063
          78	1	26	4	0.0	37.2120018	35.96300125	33.07699966
          79	1	27	1	0.0	33.52299881	33.63600159	34.06499863
          80	1	27	3	0.0	32.04800034	32.36000061	32.66799927
          81	1	27	4	0.0	32.9980011	33.84999847	35.50999832
          82	1	28	1	0.0	30.6439991	34.56700134	31.7140007
          83	1	28	3	0.0	30.46899986	33.23799896	29.7310009
          84	1	28	4	0.0	30.04800034	35.97700119	31.61100006
          85	1	29	1	0.0	32.80599976	34.07400131	28.62800026
          86	1	29	3	0.0	32.73699951	31.88100052	27.6779995
          87	1	29	4	0.0	34.12099838	34.79999924	28.29800034
          88	1	30	1	0.0	33.84199905	30.61700058	29.82900047
          89	1	30	3	0.0	32.60400009	28.67399979	29.1970005
          90	1	30	4	0.0	34.69599915	30.22599983	30.97999954
          91	1	31	1	0.0	30.17900085	29.64599991	30.22599983
          92	1	31	3	0.0	28.46899986	29.06800079	28.63699913
          93	1	31	4	0.0	29.24300003	30.2159996	31.31399918
          94	1	32	1	0.0	29.41699982	30.65500069	26.6609993
          95	1	32	3	0.0	28.18899918	32.125	25.26300049
          96	1	32	5	0.0	30.01000023	27.99546608	23.965492
          97	1	33	1	0.0	28.56200027	34.36800003	26.82799911
          98	1	33	3	0.0	30.56100082	34.99599838	25.62700081
          99	1	33	4	0.0	28.7310009	35.31499863	27.99699974
         100	1	34	1	0.0	29.05699921	36.03099823	23.46199989
         101	1	34	3	0.0	27.1970005	37.50400162	23.12899971
         102	1	34	4	0.0	28.77199936	35.21099854	22.2159996
         103	1	35	1	0.0	28.62199974	39.77000046	23.81399918
         104	1	35	3	0.0	26.69499969	40.79000092	22.78899956
         105	1	35	4	0.0	29.68300056	40.82600021	24.07099915
         106	1	36	1	0.0	27.5359993	40.35699844	20.24300003
         107	1	36	3	0.0	25.4810009	40.05799866	19.11400032
         108	1	36	4	0.0	28.44099998	40.22800064	19.00499916
         109	1	37	1	0.0	24.70499992	37.79199982	20.54800034
         110	1	37	3	0.0	22.6060009	37.61100006	21.67900085
         111	1	37	4	0.0	24.94000053	36.2820015	20.51199913
         112	1	38	1	0.0	23.18799973	39.27099991	23.7159996
         113	1	38	3	0.0	21.44599915	38.14199829	24.89299965
         114	1	38	5	0.0	24.14500046	37.85418243	22.73936258
         115	1	39	1	0.0	22.95700073	35.7820015	25.20499992
         116	1	39	3	0.0	23.08099937	34.3219986	27.09300041
         117	1	39	4	0.0	23.45999908	34.6230011	24.2859993
         118	1	40	1	0.0	23.94099998	36.12799835	28.86100006
         119	1	40	3	0.0	23.15399933	34.39500046	30.3239994
         120	1	40	4	0.0	24.32900047	37.42200089	29.62700081
         121	1	41	1	0.0	20.5510006	35.125	30.24399948
         122	1	41	3	0.0	19.66799927	32.91500092	30.57500076
         123	1	41	4	0.0	19.2859993	35.9640007	30.21800041
         124	1	42	1	0.0	20.50200081	31.96199989	28.15600014
         125	1	42	3	0.0	21.33699989	29.81399918	28.93499947
         126	1	42	4	0.0	20.5529995	31.89699936	26.63299942
         127	1	43	1	0.0	23.94400024	30.70000076	29.19599915
         128	1	43	3	0.0	24.9489994	29.81999969	31.16799927
         129	1	43	4	0.0	25.18199921	31.05900002	28.37100029
         130	1	44	1	0.0	24.00099945	31.89800072	32.79000092
         131	1	44	3	0.0	22.72299957	33.68299866	33.77999878
         132	1	44	4	0.0	25.18600082	32.81600189	33.04499817
         133	1	45	1	0.0	20.37999916	32.22600174	33.91899872
         134	1	45	3	0.0	21.05200005	32.27600098	36.22299957
         135	1	45	4	0.0	19.51499939	30.95499992	34.02000046
         136	1	46	1	0.0	19.81500053	34.76100159	36.69100189
         137	1	46	3	0.0	21.10199928	36.17399979	38.09700012
         138	1	46	5	0.0	19.90500069	32.76320979	35.30263711
         139	1	47	1	0.0	23.34399986	36.15100098	36.47100067
         140	1	47	3	0.0	22.875	37.75899887	34.7859993
         141	1	47	4	0.0	24.54299927	35.27700043	36.17300034
         142	1	48	1	0.0	24.64900017	39.68099976	35.86999893
         143	1	48	3	0.0	26.79100037	39.11899948	36.7140007
         144	1	48	4	0.0	24.12700081	40.85400009	36.72700119
         145	1	49	1	0.0	28.22699928	40.75899887	35.0019989
         146	1	49	3	0.0	27.99600029	42.82099915	36.26499939
         147	1	49	4	0.0	28.67900085	41.40499878	33.65000153
         148	1	50	1	0.0	30.11899948	42.32699966	37.91600037
         149	1	50	3	0.0	31.60199928	40.60599899	38.65100098
         150	1	50	5	0.0	29.63299942	40.80786553	36.06241734
         151	1	51	1	0.0	33.27600098	42.39099884	39.98600006
         152	1	51	3	0.0	35.65100098	42.45899963	40.01499939
         153	1	51	5	0.0	32.14199829	39.22132084	38.58553759
         154	1	52	1	0.0	35.88999939	43.39799881	37.42699814
         155	1	52	3	0.0	35.75	45.69100189	38.20500183
         156	1	52	4	0.0	35.76599884	43.32400131	35.91199875
         157	1	53	1	0.0	38.48400116	46.08100128	38.04100037
         158	1	53	3	0.0	38.12799835	46.77099991	35.75299835
         159	1	53	4	0.0	40.02399826	45.84500122	38.07300186
         160	1	54	1	0.0	37.64199829	49.44599915	36.48400116
         161	1	54	3	0.0	39.25600052	50.78099823	37.64400101
         162	1	54	4	0.0	36.42699814	50.23099899	37.02000046
         163	1	55	1	0.0	40.76699829	51.31700134	35.36999893
         164	1	55	3	0.0	41.83399963	53.19300079	36.35900116
         165	1	55	4	0.0	41.43999863	51.25899887	33.98899841
         166	1	56	1	0.0	39.65399933	54.89699936	36.05799866
         167	1	56	3	0.0	41.33599854	56.59600067	35.89599991
         168	1	56	4	0.0	39.84000015	55.11600113	37.55500031
         169	1	57	1	0.0	41.9620018	55.95000076	33.21699905
         170	1	57	3	0.0	42.74700165	58.20399857	33.25699997
         171	1	57	4	0.0	41.95700073	55.33000183	31.81699944
         172	1	58	1	0.0	40.15399933	59.25799942	32.62099838
         173	1	58	3	0.0	40.05500031	61.30799866	33.87099838
         174	1	58	4	0.0	38.73500061	59.35599899	32.04800034
         175	1	59	1	0.0	40.55500031	60.06399918	36.30599976
         176	1	59	3	0.0	39.33399963	61.72399902	37.51399994
         177	1	59	5	0.0	40.4469986	56.43031207	34.93529227
         178	1	60	1	0.0	36.88100052	60.91999817	36.68500137
         179	1	60	3	0.0	36.08000183	61.45600128	38.90800095
         180	1	60	4	0.0	35.77600098	60.52299881	35.72299957
         181	1	61	1	0.0	36.47800064	59.06399918	39.9640007
         182	1	61	3	0.0	38.80799866	59.39199829	40.42200089
         183	1	61	4	0.0	36.25899887	57.54800034	40.08100128
         184	1	62	1	0.0	38.41600037	60.29399872	42.99000168
         185	1	62	3	0.0	39.11399841	58.05899811	43.54499817
         186	1	62	4	0.0	37.69499969	60.61299896	44.27799988
         187	1	63	1	0.0	41.84500122	58.75899887	43.23600006
         188	1	63	3	0.0	42.54199982	59.95800018	45.19599915
         189	1	63	5	0.0	40.7120018	54.13007415	39.7904263
         190	1	64	1	0.0	44.0019989	57.84600067	46.22200012
         191	1	64	3	0.0	44.65599823	55.61299896	45.64099884
         192	1	64	4	0.0	43.00799942	57.69300079	47.39799881
         193	1	65	1	0.0	47.11000061	55.73799896	46.87799835
         194	1	65	3	0.0	45.78499985	54.61199951	48.54399872
         195	1	65	4	0.0	48.33599854	56.14699936	47.6969986
         196	1	66	1	0.0	46.01300049	52.12099838	47.32799911
         197	1	66	3	0.0	43.9280014	50.97900009	47.5890007
         198	1	66	5	0.0	46.58100128	47.72215779	44.88829935
         199	1	67	1	0.0	42.46900177	52.70000076	46.13999939
         200	1	67	3	0.0	42.77000046	52.58800125	43.75799942
         201	1	67	4	0.0	41.68999863	53.99200058	46.27399826
         202	1	68	1	0.0	41.13800049	50.23500061	43.56200027
         203	1	68	3	0.0	38.85499954	50.48899841	44.31200027
         204	1	68	4	0.0	41.41199875	48.71900177	43.77099991
         205	1	69	1	0.0	37.82099915	50.625	41.70999908
         206	1	69	3	0.0	38.16199875	48.78099823	40.22299957
         207	1	69	4	0.0	37.60699844	51.83000183	40.75500107
         208	1	70	1	0.0	35.50899887	47.83599854	40.54600143
         209	1	70	3	0.0	33.55099869	49.22900009	40.6230011
         210	1	70	4	0.0	35.44400024	46.59600067	41.44599915
         211	1	71	1	0.0	32.25099945	47.79899979	38.61600113
         212	1	71	3	0.0	31.77599907	45.45299911	38.68500137
         213	1	71	4	0.0	32.39300156	48.30500031	37.17200089
         214	1	72	1	0.0	29.02300072	45.82400131	38.36899948
         215	1	72	3	0.0	27.47299957	47.56600189	37.74100113
         216	1	72	4	0.0	28.6060009	45.27299881	39.71699905
         217	1	73	1	0.0	26.02300072	45.88499832	36.04899979
         218	1	73	3	0.0	24.59300041	45.13600159	37.82300186
         219	1	73	4	0.0	25.73600006	44.8370018	34.98400116
         220	1	74	1	0.0	22.72900009	47.20000076	37.4659996
         221	1	74	3	0.0	21.56200027	47.52999878	35.37599945
         222	1	74	4	0.0	22.8220005	48.52999878	38.21300125
         223	1	75	1	0.0	19.15200043	46.54999924	36.36600113
         224	1	75	3	0.0	18.25399971	45.62400055	34.35499954
         225	1	75	4	0.0	18.67000008	47.92100143	35.89400101
         226	1	76	1	0.0	20.08499908	43.66699982	34.04800034
         227	1	76	3	0.0	19.22299957	41.88299942	35.40499878
         228	1	76	4	0.0	21.55999947	43.13199997	33.88999939
         229	1	77	1	0.0	17.62299919	40.86600113	33.37099838
         230	1	77	3	0.0	18.09000015	38.7480011	32.34199905
         231	1	77	4	0.0	16.11400032	41.10300064	33.48899841
         232	1	78	1	0.0	18.0720005	39.65599823	29.7859993
         233	1	78	3	0.0	18.29100037	41.76200104	28.65099907
         234	1	78	4	0.0	16.82900047	38.84899902	29.4470005
         235	1	79	1	0.0	19.40600014	40.64400101	26.37999916
         236	1	79	3	0.0	21.64900017	40.77399826	27.21100044
         237	1	79	5	0.0	18.99200058	38.38640504	23.53683885
         238	1	80	1	0.0	22.30900002	42.91600037	25.63699913
         239	1	80	3	0.0	21.47400093	44.02600098	27.59799957
         240	1	80	4	0.0	22.37999916	43.92599869	24.4829998
         241	1	81	1	0.0	23.9090004	44.70700073	28.57999992
         242	1	81	3	0.0	23.33699989	46.65299988	27.28000069
         243	1	81	4	0.0	25.39500046	44.72200012	28.95000076
         244	1	82	1	0.0	22.49500084	48.11800003	29.43799973
         245	1	82	3	0.0	24.80999947	48.74499893	29.67499924
         246	1	82	4	0.0	21.31500053	48.25899887	30.40699959
         247	1	83	1	0.0	24.21500015	51.40599823	30.34799957
         248	1	83	3	0.0	25.06200027	52.74100113	32.13600159
         249	1	83	4	0.0	23.78000069	52.6570015	29.56999969
         250	1	84	1	0.0	23.78499985	51.23600006	34.11800003
         251	1	84	3	0.0	24.92000008	49.21300125	34.74700165
         252	1	84	4	0.0	22.42200089	50.87099838	34.69900131
         253	1	85	1	0.0	26.71899986	50.4640007	36.38999939
         254	1	85	3	0.0	26.68400002	52.31900024	37.93600082
         255	1	85	4	0.0	28.0909996	50.56399918	35.7120018
         256	1	86	1	0.0	27.70100021	50.72499847	40.04399872
         257	1	86	3	0.0	29.78300095	49.67200089	39.50799942
         258	1	86	4	0.0	27.05200005	49.95399857	41.16799927
         259	1	87	1	0.0	31.30999947	51.74100113	40.77000046
         260	1	87	3	0.0	31.05800056	52.62200165	42.98300171
         261	1	87	4	0.0	31.85199928	52.98600006	40.05799866
         262	1	88	1	0.0	32.74200058	50.76100159	44.15800095
         263	1	88	3	0.0	34.92900085	49.93899918	43.66600037
         264	1	88	4	0.0	31.99099922	49.64300156	44.85800171
         265	1	89	1	0.0	36.15100098	51.40399933	45.69800186
         266	1	89	3	0.0	35.5870018	49.95800018	47.5320015
         267	1	89	4	0.0	36.58599854	52.82699966	46.06100082
         268	1	90	1	0.0	38.2840004	49.34199905	48.05799866
         269	1	90	3	0.0	38.02999878	49.18099976	50.44300079
         270	1	90	4	0.0	39.77700043	49.07600021	47.85800171
         271	1	91	1	0.0	37.2879982	51.85800171	50.7140007
         272	1	91	3	0.0	35.35200119	52.97499847	51.5909996
         273	1	91	4	0.0	38.18700027	52.99599838	51.09000015
         274	1	92	1	0.0	33.58499908	51.60400009	50.04999924
         275	1	92	3	0.0	31.68099976	53.07099915	50.08399963
         276	1	92	4	0.0	33.08100128	50.84799957	51.26800156
         277	1	93	1	0.0	32.73600006	54.75899887	48.18000031
         278	1	93	3	0.0	32.43299866	53.2120018	46.34999847
         279	1	93	4	0.0	33.75899887	55.73199844	47.60200119
         280	1	94	1	0.0	29.86899948	54.03499985	45.75999832
         281	1	94	3	0.0	28.75600052	56.09600067	45.32899857
         282	1	94	4	0.0	28.62299919	53.37599945	46.42300034
         283	1	95	1	0.0	29.12700081	55.88600159	42.52299881
         284	1	95	3	0.0	28.29299927	53.90599823	41.39099884
         285	1	95	4	0.0	30.32699966	56.51200104	41.7820015
         286	1	96	1	0.0	26.56999969	55.38000107	39.79100037
         287	1	96	3	0.0	27.15399933	57.27600098	38.44400024
         288	1	96	4	0.0	25.14100075	55.57400131	40.2120018
         289	1	97	1	0.0	26.63100052	55.86700058	36.06499863
         290	1	97	3	0.0	25.12899971	54.0719986	35.51900101
         291	1	97	4	0.0	27.8939991	55.70899963	35.23500061
         292	1	98	1	0.0	23.61899948	55.52199936	33.74499893
         293	1	98	3	0.0	22.96100044	55.76900101	31.45000076
         294	1	98	4	0.0	22.25499916	56.08800125	34.18700027
         295	1	99	1	0.0	25.44799995	56.71900177	30.63899994
         296	1	99	3	0.0	27.51199913	56.72499847	29.41200066
         297	1	99	4	0.0	25.47299957	58.24200058	30.55500031
         298	1	100	1	0.0	28.10400009	54.11000061	29.96800041
         299	1	100	3	0.0	30.31599998	54.94100189	29.54899979
         300	1	100	4	0.0	28.06599998	53.91600037	28.44000053
         301	1	101	1	0.0	30.77799988	55.63700104	32.21300125
         302	1	101	3	0.0	32.3219986	57.45100021	31.98999977
         303	1	101	4	0.0	31.94099998	54.68999863	31.96999931
         304	1	102	1	0.0	30.61700058	59.18099976	30.83099937
         305	1	102	3	0.0	31.4470005	60.98500061	32.16899872
         306	1	102	4	0.0	29.65699959	59.69100189	29.76000023
         307	1	103	1	0.0	29.43199921	60.79100037	34.05400085
         308	1	103	3	0.0	28.45299911	58.85900116	35.09000015
         309	1	103	4	0.0	28.38800049	61.89400101	33.90200043
         310	1	104	1	0.0	29.22800064	59.63399887	37.64699936
         311	1	104	3	0.0	29.00399971	61.73899841	38.75
         312	1	104	4	0.0	30.58399963	59.12200165	38.17100143
         313	1	105	1	0.0	27.36100006	60.72700119	40.7519989
         314	1	105	3	0.0	27.30800056	58.59999847	41.8769989
         315	1	105	4	0.0	25.90099907	61.17499924	40.5929985
         316	1	106	1	0.0	27.92399979	59.59899902	44.34899902
         317	1	106	3	0.0	25.59199905	59.95800018	44.8730011
         318	1	106	4	0.0	28.53700066	60.54199982	45.40299988
         319	1	107	1	0.0	25.20899963	57.44499969	45.9129982
         320	1	107	3	0.0	24.4279995	56.72900009	48.0320015
         321	1	107	4	0.0	24.48800087	56.41199875	45.0359993
         322	1	108	1	0.0	27.03300095	56.29700089	49.06100082
         323	1	108	3	0.0	28.70700073	57.04700089	50.61399841
         324	1	108	4	0.0	26.95700073	54.87900162	49.50600052

Bond Coeffs

           1	200.0	3.77
           2	200.0	2.41
           3	200.0	2.50
           4	200.0	1.54
           5	200.0	1.54
Bonds

           1	2	1	2
           2	4	1	3
           3	1	1	4
           4	3	2	4
           5	2	4	5
           6	4	4	6
           7	1	4	7
           8	3	5	7
           9	2	7	8
          10	4	7	9
          11	1	7	10
          12	3	8	10
          13	2	10	11
          14	4	10	12
          15	1	10	13
          16	3	11	13
          17	2	13	14
          18	4	13	15
          19	1	13	16
          20	3	14	16
          21	2	16	17
          22	4	16	18
          23	1	16	19
          24	3	17	19
          25	2	19	20
          26	5	19	21
          27	1	19	22
          28	3	20	22
          29	2	22	23
          30	4	22	24
          31	1	22	25
          32	3	23	25
          33	2	25	26
          34	4	25	27
          35	1	25	28
          36	3	26	28
          37	2	28	29
          38	4	28	30
          39	1	28	31
          40	3	29	31
          41	2	31	32
          42	4	31	33
          43	1	31	34
          44	3	32	34
          45	2	34	35
          46	4	34	36
          47	1	34	37
          48	3	35	37
          49	2	37	38
          50	4	37	39
          51	1	37	40
          52	3	38	40
          53	2	40	41
          54	4	40	42
          55	1	40	43
          56	3	41	43
          57	2	43	44
          58	4	43	45
          59	1	43	46
          60	3	44	46
          61	2	46	47
          62	4	46	48
          63	1	46	49
          64	3	47	49
          65	2	49	50
          66	4	49	51
          67	1	49	52
          68	3	50	52
          69	2	52	53
          70	4	52	54
          71	1	52	55
          72	3	53	55
          73	2	55	56
          74	4	55	57
          75	1	55	58
          76	3	56	58
          77	2	58	59
          78	4	58	60
          79	1	58	61
          80	3	59	61
          81	2	61	62
          82	4	61	63
          83	1	61	64
          84	3	62	64
          85	2	64	65
          86	4	64	66
          87	1	64	67
          88	3	65	67
          89	2	67	68
          90	4	67	69
          91	1	67	70
          92	3	68	70
          93	2	70	71
          94	4	70	72
          95	1	70	73
          96	3	71	73
          97	2	73	74
          98	4	73	75
          99	1	73	76
         100	3	74	76
         101	2	76	77
         102	4	76	78
         103	1	76	79
         104	3	77	79
         105	2	79	80
         106	4	79	81
         107	1	79	82
         108	3	80	82
         109	2	82	83
         110	4	82	84
         111	1	82	85
         112	3	83	85
         113	2	85	86
         114	4	85	87
         115	1	85	88
         116	3	86	88
         117	2	88	89
         118	4	88	90
         119	1	88	91
         120	3	89	91
         121	2	91	92
         122	4	91	93
         123	1	91	94
         124	3	92	94
         125	2	94	95
         126	5	94	96
         127	1	94	97
         128	3	95	97
         129	2	97	98
         130	4	97	99
         131	1	97	100
         132	3	98	100
         133	2	100	101
         134	4	100	102
         135	1	100	103
         136	3	101	103
         137	2	103	104
         138	4	103	105
         139	1	103	106
         140	3	104	106
         141	2	106	107
         142	4	106	108
         143	1	106	109
         144	3	107	109
         145	2	109	110
         146	4	109	111
         147	1	109	112
         148	3	110	112
         149	2	112	113
         150	5	112	114
         151	1	112	115
         152	3	113	115
         153	2	115	116
         154	4	115	117
         155	1	115	118
         156	3	116	118
         157	2	118	119
         158	4	118	120
         159	1	118	121
         160	3	119	121
         161	2	121	122
         162	4	121	123
         163	1	121	124
         164	3	122	124
         165	2	124	125
         166	4	124	126
         167	1	124	127
         168	3	125	127
         169	2	127	128
         170	4	127	129
         171	1	127	130
         172	3	128	130
         173	2	130	131
         174	4	130	132
         175	1	130	133
         176	3	131	133
         177	2	133	134
         178	4	133	135
         179	1	133	136
         180	3	134	136
         181	2	136	137
         182	5	136	138
         183	1	136	139
         184	3	137	139
         185	2	139	140
         186	4	139	141
         187	1	139	142
         188	3	140	142
         189	2	142	143
         190	4	142	144
         191	1	142	145
         192	3	143	145
         193	2	145	146
         194	4	145	147
         195	1	145	148
         196	3	146	148
         197	2	148	149
         198	5	148	150
         199	1	148	151
         200	3	149	151
         201	2	151	152
         202	5	151	153
         203	1	151	154
         204	3	152	154
         205	2	154	155
         206	4	154	156
         207	1	154	157
         208	3	155	157
         209	2	157	158
         210	4	157	159
         211	1	157	160
         212	3	158	160
         213	2	160	161
         214	4	160	162
         215	1	160	163
         216	3	161	163
         217	2	163	164
         218	4	163	165
         219	1	163	166
         220	3	164	166
         221	2	166	167
         222	4	166	168
         223	1	166	169
         224	3	167	169
         225	2	169	170
         226	4	169	171
         227	1	169	172
         228	3	170	172
         229	2	172	173
         230	4	172	174
         231	1	172	175
         232	3	173	175
         233	2	175	176
         234	5	175	177
         235	1	175	178
         236	3	176	178
         237	2	178	179
         238	4	178	180
         239	1	178	181
         240	3	179	181
         241	2	181	182
         242	4	181	183
         243	1	181	184
         244	3	182	184
         245	2	184	185
         246	4	184	186
         247	1	184	187
         248	3	185	187
         249	2	187	188
         250	5	187	189
         251	1	187	190
         252	3	188	190
         253	2	190	191
         254	4	190	192
         255	1	190	193
         256	3	191	193
         257	2	193	194
         258	4	193	195
         259	1	193	196
         260	3	194	196
         261	2	196	197
         262	5	196	198
         263	1	196	199
         264	3	197	199
         265	2	199	200
         266	4	199	201
         267	1	199	202
         268	3	200	202
         269	2	202	203
         270	4	202	204
         271	1	202	205
         272	3	203	205
         273	2	205	206
         274	4	205	207
         275	1	205	208
         276	3	206	208
         277	2	208	209
         278	4	208	210
         279	1	208	211
         280	3	209	211
         281	2	211	212
         282	4	211	213
         283	1	211	214
         284	3	212	214
         285	2	214	215
         286	4	214	216
         287	1	214	217
         288	3	215	217
         289	2	217	218
         290	4	217	219
         291	1	217	220
         292	3	218	220
         293	2	220	221
         294	4	220	222
         295	1	220	223
         296	3	221	223
         297	2	223	224
         298	4	223	225
         299	1	223	226
         300	3	224	226
         301	2	226	227
         302	4	226	228
         303	1	226	229
         304	3	227	229
         305	2	229	230
         306	4	229	231
         307	1	229	232
         308	3	230	232
         309	2	232	233
         310	4	232	234
         311	1	232	235
         312	3	233	235
         313	2	235	236
         314	5	235	237
         315	1	235	238
         316	3	236	238
         317	2	238	239
         318	4	238	240
         319	1	238	241
         320	3	239	241
         321	2	241	242
         322	4	241	243
         323	1	241	244
         324	3	242	244
         325	2	244	245
         326	4	244	246
         327	1	244	247
         328	3	245	247
         329	2	247	248
         330	4	247	249
         331	1	247	250
         332	3	248	250
         333	2	250	251
         334	4	250	252
         335	1	250	253
         336	3	251	253
         337	2	253	254
         338	4	253	255
         339	1	253	256
         340	3	254	256
         341	2	256	257
         342	4	256	258
         343	1	256	259
         344	3	257	259
         345	2	259	260
         346	4	259	261
         347	1	259	262
         348	3	260	262
         349	2	262	263
         350	4	262	264
         351	1	262	265
         352	3	263	265
         353	2	265	266
         354	4	265	267
         355	1	265	268
         356	3	266	268
         357	2	268	269
         358	4	268	270
         359	1	268	271
         360	3	269	271
         361	2	271	272
         362	4	271	273
         363	1	271	274
         364	3	272	274
         365	2	274	275
         366	4	274	276
         367	1	274	277
         368	3	275	277
         369	2	277	278
         370	4	277	279
         371	1	277	280
         372	3	278	280
         373	2	280	281
         374	4	280	282
         375	1	280	283
         376	3	281	283
         377	2	283	284
         378	4	283	285
         379	1	283	286
         380	3	284	286
         381	2	286	287
         382	4	286	288
         383	1	286	289
         384	3	287	289
         385	2	289	290
         386	4	289	291
         387	1	289	292
         388	3	290	292
         389	2	292	293
         390	4	292	294
         391	1	292	295
         392	3	293	295
         393	2	295	296
         394	4	295	297
         395	1	295	298
         396	3	296	298
         397	2	298	299
         398	4	298	300
         399	1	298	301
         400	3	299	301
         401	2	301	302
         402	4	301	303
         403	1	301	304
         404	3	302	304
         405	2	304	305
         406	4	304	306
         407	1	304	307
         408	3	305	307
         409	2	307	308
         410	4	307	309
         411	1	307	310
         412	3	308	310
         413	2	310	311
         414	4	310	312
         415	1	310	313
         416	3	311	313
         417	2	313	314
         418	4	313	315
         419	1	313	316
         420	3	314	316
         421	2	316	317
         422	4	316	318
         423	1	316	319
         424	3	317	319
         425	2	319	320
         426	4	319	321
         427	1	319	322
         428	3	320	322
         429	2	322	323
         430	4	322	324

