ITEM: TIMESTEP
0
ITEM: NUMBER OF ATOMS
324
ITEM: BOX BOUNDS ss ss ss
16.074 48.376
27.9555 61.934
18.965 55.631
ITEM: ATOMS id type xs ys zs
1 1 0.0595319 0.312595 0.649921
2 3 0.0342394 0.37693 0.663176
3 4 0.0529998 0.313066 0.608575
4 1 0.108167 0.407597 0.685758
5 3 0.167637 0.41672 0.647357
6 4 0.134852 0.407449 0.720859
7 1 0.131075 0.472078 0.603747
8 3 0.125936 0.530498 0.568919
9 4 0.123831 0.449358 0.568319
10 1 0.0960931 0.57685 0.625675
11 3 0.157266 0.588181 0.660721
12 4 0.0561885 0.584855 0.648339
13 1 0.161197 0.666436 0.647657
14 3 0.194725 0.660315 0.705613
15 4 0.158473 0.708375 0.634839
16 1 0.124512 0.669909 0.746114
17 3 0.157142 0.62697 0.789396
18 4 0.0830289 0.686508 0.758687
19 1 0.125441 0.558869 0.759859
20 3 0.186707 0.531822 0.787487
21 5 0.118847 0.440895 0.691876
22 1 0.234506 0.54327 0.725386
23 3 0.290044 0.556308 0.766623
24 4 0.248065 0.54121 0.685758
25 1 0.278342 0.636035 0.770032
26 3 0.308866 0.623968 0.829024
27 4 0.259736 0.677414 0.766459
28 1 0.236889 0.605339 0.862298
29 3 0.274255 0.559928 0.899307
30 4 0.193208 0.607841 0.876752
31 1 0.272862 0.498742 0.850325
32 3 0.339762 0.486352 0.875389
33 4 0.258808 0.471196 0.819997
34 1 0.382577 0.531763 0.826733
35 3 0.43084 0.538414 0.876752
36 4 0.393226 0.560517 0.794605
37 1 0.394929 0.600689 0.907026
38 3 0.410718 0.586209 0.968936
39 4 0.374868 0.64095 0.912126
40 1 0.356696 0.520403 0.970954
41 3 0.399728 0.472343 0.998909
42 4 0.310352 0.507601 0.971472
43 1 0.402792 0.424284 0.93509
44 3 0.467618 0.396354 0.91608
45 4 0.375704 0.398797 0.91038
46 1 0.495418 0.467252 0.88398
47 3 0.538759 0.427756 0.84577
48 4 0.530927 0.466222 0.91188
49 1 0.469692 0.40227 0.803305
50 3 0.399047 0.422429 0.794087
51 4 0.475296 0.359125 0.814951
52 1 0.39366 0.395854 0.724868
53 3 0.380162 0.329959 0.746823
54 4 0.404062 0.393323 0.684094
55 1 0.298 0.331902 0.735995
56 3 0.328401 0.305738 0.680658
57 4 0.255216 0.348 0.728059
58 1 0.297505 0.228454 0.697295
59 3 0.294564 0.197847 0.638166
60 4 0.28023 0.193314 0.719277
61 1 0.244815 0.25347 0.608002
62 3 0.265804 0.276425 0.549583
63 4 0.202495 0.273129 0.604211
64 1 0.342363 0.303178 0.57151
65 3 0.392514 0.252057 0.582965
66 4 0.361278 0.339818 0.590656
67 1 0.426351 0.256589 0.512873
68 3 0.439168 0.314185 0.4769
69 4 0.414649 0.221391 0.487754
70 1 0.521856 0.30359 0.470299
71 3 0.502043 0.267214 0.417035
72 4 0.567209 0.297763 0.480991
73 1 0.534208 0.320659 0.368216
74 3 0.539874 0.26327 0.331397
75 4 0.553402 0.356064 0.348606
76 1 0.613244 0.236489 0.363498
77 3 0.587982 0.171595 0.349888
78 4 0.654387 0.235665 0.38488
79 1 0.540183 0.16718 0.411826
80 3 0.49452 0.129627 0.373725
81 4 0.52393 0.173478 0.451235
82 1 0.451056 0.19458 0.347706
83 3 0.445638 0.155467 0.293624
84 4 0.432605 0.236077 0.344897
85 1 0.517987 0.180071 0.263541
86 3 0.51585 0.11553 0.237632
87 4 0.558696 0.201437 0.254541
88 1 0.550059 0.0783299 0.296296
89 3 0.511733 0.0211467 0.27906
90 4 0.576497 0.0668226 0.327688
91 1 0.43666 0.049753 0.307124
92 3 0.383722 0.0327423 0.263787
93 4 0.407684 0.0665283 0.336797
94 1 0.41307 0.0794482 0.209895
95 3 0.375054 0.122711 0.171767
96 5 0.431428 0.00117721 0.13638
97 1 0.386601 0.188723 0.214449
98 3 0.448486 0.207205 0.181694
99 4 0.391833 0.216594 0.246332
100 1 0.401926 0.237666 0.122648
101 3 0.344344 0.281017 0.113566
102 4 0.393103 0.213533 0.0886653
103 1 0.388459 0.347706 0.132248
104 3 0.328803 0.377725 0.104293
105 4 0.421305 0.378784 0.139257
106 1 0.354839 0.364981 0.0348552
107 3 0.29122 0.356182 0.00406374
108 4 0.382856 0.361185 0.00109093
109 1 0.267197 0.289493 0.0431735
110 3 0.202217 0.284166 0.0740196
111 4 0.274472 0.245053 0.0421917
112 1 0.220234 0.33302 0.129575
113 3 0.166305 0.299793 0.161676
114 5 0.249861 0.291323 0.102939
115 1 0.213083 0.230338 0.170185
116 3 0.216922 0.187369 0.221677
117 4 0.228655 0.196228 0.145121
118 1 0.243545 0.24052 0.269896
119 3 0.219181 0.189518 0.309797
120 4 0.255557 0.278603 0.290787
121 1 0.138598 0.211002 0.307615
122 3 0.111262 0.145961 0.316642
123 4 0.0994365 0.235694 0.306906
124 1 0.137081 0.117914 0.250668
125 3 0.162931 0.0546973 0.271914
126 4 0.13866 0.116001 0.209131
127 1 0.243638 0.0807726 0.279032
128 3 0.274751 0.0548739 0.332815
129 4 0.281964 0.0913381 0.256532
130 1 0.245403 0.11603 0.377052
131 3 0.205839 0.168563 0.404053
132 4 0.282088 0.143047 0.384007
133 1 0.133304 0.125683 0.407844
134 3 0.154108 0.127155 0.470681
135 4 0.106526 0.0882773 0.410598
136 1 0.115813 0.200289 0.483445
137 3 0.155656 0.241874 0.521791
138 5 0.118599 0.141494 0.44558
139 1 0.225063 0.241197 0.477445
140 3 0.210544 0.288521 0.43149
141 4 0.262182 0.215475 0.469318
142 1 0.265463 0.345086 0.461054
143 3 0.331775 0.328547 0.484072
144 4 0.249303 0.379608 0.484427
145 1 0.376231 0.376812 0.437381
146 3 0.369079 0.437498 0.471827
147 4 0.390224 0.395824 0.400507
148 1 0.434803 0.422959 0.516855
149 3 0.480713 0.37231 0.536901
150 5 0.419757 0.378251 0.466302
151 1 0.532537 0.424843 0.57331
152 3 0.606062 0.426844 0.574101
153 5 0.49743 0.331558 0.535115
154 1 0.61346 0.454479 0.503518
155 3 0.609126 0.521963 0.524737
156 4 0.609622 0.452301 0.462199
157 1 0.693765 0.533441 0.520264
158 3 0.682744 0.553748 0.457863
159 4 0.74144 0.526495 0.521137
160 1 0.667699 0.632474 0.4778
161 3 0.717665 0.671763 0.509437
162 4 0.630085 0.655577 0.492418
163 1 0.764442 0.687538 0.447417
164 3 0.797474 0.742749 0.47439
165 4 0.785276 0.685831 0.409753
166 1 0.729986 0.792899 0.466181
167 3 0.782057 0.842901 0.461763
168 4 0.735744 0.799344 0.507009
169 1 0.801437 0.823889 0.388698
170 3 0.825738 0.890225 0.389789
171 4 0.801282 0.805642 0.350515
172 1 0.745465 0.921244 0.372443
173 3 0.7424 0.981577 0.406535
174 4 0.701536 0.924129 0.356816
175 1 0.757879 0.944965 0.472945
176 3 0.720079 0.99382 0.505891
177 5 0.754535 0.838025 0.435561
178 1 0.64414 0.970158 0.483282
179 3 0.619343 0.985932 0.54391
180 4 0.609931 0.958474 0.457045
181 1 0.631664 0.915535 0.57271
182 3 0.703795 0.925188 0.585202
183 4 0.624884 0.870918 0.575901
184 1 0.69166 0.951734 0.655239
185 3 0.713269 0.885957 0.670376
186 4 0.669339 0.961122 0.690367
187 1 0.797814 0.906559 0.661948
188 3 0.819392 0.941846 0.715404
189 5 0.762739 0.770328 0.567977
190 1 0.86459 0.879689 0.743386
191 3 0.884837 0.813971 0.72754
192 4 0.833818 0.875186 0.77546
193 1 0.960807 0.81765 0.761277
194 3 0.919788 0.784511 0.806715
195 4 0.998762 0.829687 0.783614
196 1 0.926847 0.7112 0.77355
197 3 0.8623 0.677591 0.780669
198 5 0.944431 0.581741 0.707012
199 1 0.817132 0.72824 0.74115
200 3 0.82645 0.724944 0.676185
201 4 0.793016 0.766264 0.744804
202 1 0.775927 0.655694 0.670839
203 3 0.70525 0.66317 0.691294
204 4 0.78441 0.611078 0.67654
205 1 0.67324 0.667172 0.620329
206 3 0.683797 0.612903 0.579774
207 4 0.666615 0.702636 0.594284
208 1 0.601666 0.585091 0.588583
209 3 0.54105 0.626087 0.590684
210 4 0.599653 0.548597 0.613129
211 1 0.500805 0.584002 0.535946
212 3 0.4861 0.514958 0.537828
213 4 0.505201 0.598894 0.496564
214 1 0.400873 0.525877 0.52921
215 3 0.352888 0.577145 0.512082
216 4 0.387964 0.509661 0.565974
217 1 0.308 0.527672 0.465936
218 3 0.26373 0.505629 0.514319
219 4 0.299115 0.496829 0.43689
220 1 0.206024 0.566373 0.504582
221 3 0.169897 0.576085 0.447581
222 4 0.208903 0.605516 0.524955
223 1 0.0952882 0.547244 0.474581
224 3 0.0674881 0.519991 0.419735
225 4 0.0803665 0.587593 0.461708
226 1 0.124172 0.462396 0.411362
227 3 0.0974862 0.409892 0.448372
228 4 0.169835 0.446651 0.407053
229 1 0.0479537 0.379961 0.392898
230 3 0.062411 0.317628 0.364834
231 4 0.00123831 0.386936 0.396116
232 1 0.0618538 0.344351 0.295124
233 3 0.0686335 0.406331 0.264168
234 4 0.0233732 0.3206 0.285878
235 1 0.103152 0.373428 0.202231
236 3 0.17259 0.377254 0.224895
237 5 0.090335 0.306986 0.124689
238 1 0.193022 0.440294 0.181967
239 3 0.167172 0.472961 0.23545
240 4 0.19522 0.470018 0.150494
241 1 0.242555 0.493003 0.262232
242 3 0.224847 0.550275 0.226777
243 4 0.288558 0.493445 0.272323
244 1 0.19878 0.59339 0.285632
245 3 0.270448 0.611843 0.292096
246 4 0.16225 0.59754 0.31206
247 1 0.252028 0.690157 0.310451
248 3 0.278249 0.729447 0.359216
249 4 0.238561 0.726975 0.289233
250 1 0.238716 0.685154 0.413271
251 3 0.273853 0.625617 0.430426
252 4 0.19652 0.674412 0.429117
253 1 0.329546 0.662434 0.475236
254 3 0.328463 0.717027 0.5174
255 4 0.37202 0.665377 0.456745
256 1 0.359947 0.670115 0.574892
257 3 0.424401 0.639125 0.560274
258 4 0.339855 0.647424 0.605547
259 1 0.471674 0.700016 0.594693
260 3 0.463872 0.725945 0.655048
261 4 0.488453 0.736657 0.575274
262 1 0.516005 0.671175 0.687094
263 3 0.58371 0.646983 0.673676
264 4 0.492756 0.638272 0.706186
265 1 0.621541 0.690098 0.729095
266 3 0.60408 0.647542 0.779114
267 4 0.635007 0.731978 0.738995
268 1 0.687574 0.629413 0.79346
269 3 0.67971 0.624675 0.858507
270 4 0.733794 0.621585 0.788005
271 1 0.656739 0.70346 0.865898
272 3 0.596805 0.736333 0.889816
273 4 0.684571 0.736952 0.876152
274 1 0.542103 0.695985 0.847788
275 3 0.483159 0.739159 0.848715
276 4 0.5265 0.673735 0.881007
277 1 0.515819 0.788837 0.796787
278 3 0.506439 0.743309 0.746877
279 4 0.547489 0.817473 0.781023
280 1 0.427063 0.76753 0.730786
281 3 0.392607 0.828186 0.719031
282 4 0.38849 0.748135 0.748868
283 1 0.404093 0.822005 0.642503
284 3 0.378274 0.763733 0.611629
285 4 0.441242 0.840429 0.622293
286 1 0.324933 0.807114 0.567992
287 3 0.343013 0.862913 0.531255
288 4 0.280695 0.812823 0.579474
289 1 0.326822 0.821446 0.466372
290 3 0.280323 0.768619 0.451481
291 4 0.365922 0.816796 0.443735
292 1 0.233577 0.811293 0.403098
293 3 0.213207 0.818562 0.340506
294 4 0.19135 0.82795 0.415153
295 1 0.290199 0.846521 0.318388
296 3 0.354096 0.846697 0.284923
297 4 0.290973 0.891343 0.316097
298 1 0.372423 0.769737 0.300087
299 3 0.440902 0.794194 0.28866
300 4 0.371246 0.764027 0.258414
301 1 0.455204 0.814677 0.361316
302 3 0.503003 0.868064 0.355234
303 4 0.491208 0.786807 0.354688
304 1 0.45022 0.918978 0.323624
305 3 0.475915 0.972071 0.360116
306 4 0.4205 0.933988 0.294414
307 1 0.413535 0.966361 0.411526
308 3 0.383227 0.909502 0.439781
309 4 0.381215 0.998823 0.40738
310 1 0.407219 0.93231 0.509518
311 3 0.400285 0.994261 0.539601
312 4 0.449198 0.917242 0.52381
313 1 0.349421 0.964478 0.594202
314 3 0.34778 0.901879 0.624884
315 4 0.304223 0.977662 0.589865
316 1 0.36685 0.93128 0.692303
317 3 0.294657 0.941846 0.706595
318 4 0.385828 0.959033 0.721049
319 1 0.2828 0.867887 0.734959
320 3 0.258622 0.846815 0.792751
321 4 0.260479 0.837486 0.71104
322 1 0.339267 0.834101 0.820815
323 3 0.39109 0.856174 0.86317
324 4 0.336914 0.792369 0.832952
ITEM: TIMESTEP
1000
ITEM: NUMBER OF ATOMS
324
ITEM: BOX BOUNDS ss ss ss
15.9303 48.1577
28.4064 61.9926
18.9158 55.3391
ITEM: ATOMS id type xs ys zs
1 1 0.0772483 0.283762 0.655435
2 3 0.0763364 0.354287 0.646933
3 4 0.0872756 0.271911 0.615772
4 1 0.127755 0.375233 0.696378
5 3 0.180623 0.390632 0.650551
6 4 0.153241 0.38153 0.729142
7 1 0.139322 0.440011 0.613425
8 3 0.100829 0.492367 0.586394
9 4 0.130391 0.411179 0.580968
10 1 0.107878 0.547949 0.633272
11 3 0.162429 0.570022 0.67144
12 4 0.0677205 0.548337 0.655153
13 1 0.164505 0.642778 0.656887
14 3 0.195872 0.656382 0.717547
15 4 0.164639 0.681219 0.63667
16 1 0.127536 0.642541 0.755289
17 3 0.152993 0.594806 0.802317
18 4 0.0852876 0.651722 0.765594
19 1 0.135919 0.531968 0.773074
20 3 0.200118 0.510408 0.790697
21 5 0.0956734 0.563093 0.772649
22 1 0.242548 0.519249 0.732596
23 3 0.302991 0.544293 0.762589
24 4 0.254746 0.51841 0.692359
25 1 0.284331 0.614847 0.775914
26 3 0.300099 0.625918 0.840351
27 4 0.274185 0.654362 0.763735
28 1 0.247362 0.583112 0.869709
29 3 0.278628 0.529964 0.904656
30 4 0.202234 0.583626 0.883614
31 1 0.29371 0.47977 0.856679
32 3 0.367021 0.459697 0.860442
33 4 0.275564 0.453019 0.826277
34 1 0.400194 0.51755 0.829903
35 3 0.447049 0.531701 0.879677
36 4 0.40804 0.548036 0.798165
37 1 0.409553 0.587045 0.911119
38 3 0.421144 0.5666 0.973472
39 4 0.386588 0.626507 0.914471
40 1 0.377542 0.504693 0.975122
41 3 0.423068 0.454411 0.997606
42 4 0.331057 0.493886 0.977494
43 1 0.434831 0.416386 0.938172
44 3 0.505303 0.403995 0.92108
45 4 0.407334 0.389681 0.913024
46 1 0.518437 0.463591 0.879835
47 3 0.556366 0.423801 0.836816
48 4 0.556153 0.46703 0.905636
49 1 0.495767 0.392113 0.803018
50 3 0.423709 0.410097 0.793091
51 4 0.502684 0.349777 0.816732
52 1 0.413828 0.37902 0.729963
53 3 0.397442 0.317089 0.759359
54 4 0.423826 0.37276 0.689008
55 1 0.321712 0.310636 0.744113
56 3 0.34323 0.275582 0.690711
57 4 0.276399 0.324609 0.738491
58 1 0.323988 0.205478 0.708455
59 3 0.31447 0.177891 0.648486
60 4 0.301832 0.172027 0.730951
61 1 0.267059 0.226237 0.619749
62 3 0.285847 0.252901 0.562161
63 4 0.223968 0.241194 0.621753
64 1 0.358254 0.278867 0.577511
65 3 0.416917 0.234957 0.580376
66 4 0.37509 0.318443 0.594517
67 1 0.439123 0.23512 0.515036
68 3 0.456459 0.291566 0.478062
69 4 0.425906 0.201641 0.490031
70 1 0.531912 0.281846 0.469254
71 3 0.515375 0.246805 0.413569
72 4 0.575035 0.269129 0.481153
73 1 0.538852 0.295651 0.366567
74 3 0.555995 0.237695 0.32978
75 4 0.554421 0.331894 0.346601
76 1 0.622221 0.2163 0.360497
77 3 0.605598 0.146091 0.361214
78 4 0.66376 0.219022 0.37962
79 1 0.551933 0.144778 0.412467
80 3 0.497095 0.107663 0.383219
81 4 0.538573 0.149603 0.45319
82 1 0.458709 0.165066 0.351661
83 3 0.45482 0.131791 0.291938
84 4 0.440308 0.207869 0.350106
85 1 0.525103 0.15023 0.267869
86 3 0.535132 0.0848178 0.241622
87 4 0.564 0.171235 0.254121
88 1 0.560714 0.0491166 0.299143
89 3 0.514165 -0.0083193 0.29125
90 4 0.587902 0.0416479 0.332077
91 1 0.447391 0.019713 0.310992
92 3 0.400341 -0.00108291 0.262736
93 4 0.420388 0.0369659 0.3405
94 1 0.419952 0.0442559 0.214512
95 3 0.359542 0.0847365 0.202381
96 5 0.458488 0.0156032 0.211565
97 1 0.395473 0.153154 0.213365
98 3 0.450811 0.182884 0.179379
99 4 0.394806 0.181175 0.247338
100 1 0.408004 0.205267 0.124143
101 3 0.351585 0.250972 0.110977
102 4 0.396093 0.180952 0.0905628
103 1 0.387584 0.31475 0.132228
104 3 0.336833 0.348599 0.0985601
105 4 0.425299 0.342676 0.137266
106 1 0.354771 0.328512 0.0338517
107 3 0.290935 0.310468 0.0066978
108 4 0.382875 0.326201 -0.000176876
109 1 0.268609 0.252956 0.0439133
110 3 0.203532 0.253458 0.0748457
111 4 0.27801 0.208654 0.0433215
112 1 0.220117 0.296758 0.12886
113 3 0.175772 0.255483 0.164617
114 5 0.260095 0.283685 0.10949
115 1 0.221612 0.197153 0.17223
116 3 0.277249 0.181255 0.213463
117 4 0.229228 0.160927 0.148734
118 1 0.248766 0.203488 0.273972
119 3 0.220348 0.153832 0.315717
120 4 0.260482 0.241415 0.293894
121 1 0.146267 0.173388 0.316371
122 3 0.119661 0.105246 0.316697
123 4 0.107682 0.198523 0.313021
124 1 0.14595 0.0806501 0.257372
125 3 0.182259 0.0197347 0.27196
126 4 0.140443 0.081909 0.216518
127 1 0.254078 0.0461668 0.284683
128 3 0.272567 0.0206262 0.343881
129 4 0.290051 0.0572125 0.261243
130 1 0.258957 0.081925 0.381586
131 3 0.209539 0.130844 0.403614
132 4 0.293858 0.109771 0.390061
133 1 0.150808 0.0860386 0.416306
134 3 0.164507 0.0962456 0.48108
135 4 0.125191 0.0482189 0.418779
136 1 0.133867 0.165203 0.487277
137 3 0.177813 0.202177 0.5256
138 5 0.127478 0.152277 0.449712
139 1 0.239538 0.210715 0.484926
140 3 0.237343 0.25475 0.432223
141 4 0.276319 0.18305 0.477467
142 1 0.27841 0.310712 0.464106
143 3 0.348215 0.30817 0.484057
144 4 0.265298 0.346744 0.488394
145 1 0.386625 0.349639 0.437918
146 3 0.382582 0.406101 0.479288
147 4 0.398968 0.365947 0.40172
148 1 0.445643 0.400082 0.514095
149 3 0.48921 0.355545 0.547632
150 5 0.415341 0.434068 0.5099
151 1 0.549336 0.399104 0.560292
152 3 0.620452 0.408284 0.554478
153 5 0.534524 0.357483 0.548948
154 1 0.62637 0.430704 0.489314
155 3 0.624415 0.499313 0.503961
156 4 0.620757 0.429739 0.449467
157 1 0.699392 0.516068 0.512041
158 3 0.710683 0.547301 0.452655
159 4 0.74908 0.511272 0.514478
160 1 0.67353 0.61256 0.464707
161 3 0.73681 0.6368 0.49559
162 4 0.63595 0.635828 0.474303
163 1 0.769266 0.669559 0.440989
164 3 0.785775 0.726968 0.4757
165 4 0.790301 0.668829 0.402074
166 1 0.730583 0.772939 0.459441
167 3 0.782863 0.822833 0.443688
168 4 0.740021 0.781152 0.498234
169 1 0.796356 0.811169 0.378107
170 3 0.810296 0.878282 0.364633
171 4 0.797068 0.793184 0.339384
172 1 0.741859 0.905483 0.362267
173 3 0.759446 0.962991 0.398736
174 4 0.696729 0.908863 0.350214
175 1 0.769217 0.926424 0.459919
176 3 0.750735 0.989988 0.493235
177 5 0.792781 0.894248 0.436039
178 1 0.671595 0.974739 0.492545
179 3 0.639293 0.972314 0.555168
180 4 0.631796 0.978177 0.472068
181 1 0.648491 0.903601 0.575152
182 3 0.718211 0.915897 0.594996
183 4 0.642039 0.858748 0.569213
184 1 0.711696 0.925537 0.658706
185 3 0.736902 0.863012 0.670501
186 4 0.686513 0.943575 0.69055
187 1 0.811944 0.872616 0.678931
188 3 0.849634 0.92509 0.710905
189 5 0.852165 0.883631 0.69724
190 1 0.868122 0.889681 0.766498
191 3 0.905092 0.855697 0.815082
192 4 0.840254 0.899817 0.803203
193 1 0.936135 0.794933 0.790203
194 3 0.893122 0.753785 0.757646
195 4 0.923237 0.812994 0.82665
196 1 0.926302 0.688015 0.77168
197 3 0.858965 0.655209 0.771737
198 5 0.91632 0.68943 0.810609
199 1 0.815949 0.706043 0.742769
200 3 0.826647 0.685195 0.681842
201 4 0.79931 0.747412 0.744052
202 1 0.76305 0.642861 0.670415
203 3 0.692527 0.666191 0.676003
204 4 0.776268 0.59827 0.675738
205 1 0.664727 0.653762 0.612104
206 3 0.664018 0.592099 0.577966
207 4 0.662287 0.692284 0.590597
208 1 0.588196 0.572686 0.582702
209 3 0.523361 0.612558 0.586799
210 4 0.584836 0.540545 0.613752
211 1 0.485707 0.582995 0.533496
212 3 0.460267 0.514198 0.521309
213 4 0.491754 0.600378 0.493958
214 1 0.384202 0.527214 0.526019
215 3 0.338082 0.578882 0.500875
216 4 0.367665 0.513206 0.563504
217 1 0.286557 0.540333 0.467243
218 3 0.238997 0.52367 0.515557
219 4 0.277486 0.513407 0.435213
220 1 0.189422 0.582897 0.508783
221 3 0.150513 0.598213 0.456318
222 4 0.19679 0.624825 0.525107
223 1 0.0800856 0.575631 0.471381
224 3 0.065012 0.554288 0.409804
225 4 0.0678283 0.619066 0.462211
226 1 0.102895 0.490333 0.408118
227 3 0.0550523 0.44466 0.433332
228 4 0.145834 0.469445 0.404754
229 1 0.0123294 0.426023 0.379119
230 3 0.029451 0.363564 0.352229
231 4 -0.0256996 0.449778 0.367905
232 1 0.0285432 0.381671 0.285707
233 3 0.0325243 0.436828 0.24288
234 4 -0.00819811 0.354218 0.277828
235 1 0.0757544 0.402259 0.194523
236 3 0.147679 0.40304 0.213229
237 5 0.0348821 0.400909 0.170501
238 1 0.170657 0.463418 0.180161
239 3 0.150355 0.509463 0.227386
240 4 0.172946 0.495115 0.146813
241 1 0.223732 0.514586 0.258182
242 3 0.229613 0.581597 0.237824
243 4 0.270003 0.510625 0.266988
244 1 0.188511 0.617383 0.285012
245 3 0.254599 0.636326 0.311693
246 4 0.149766 0.623388 0.310335
247 1 0.247315 0.709844 0.311435
248 3 0.274782 0.740254 0.365014
249 4 0.239573 0.747558 0.29005
250 1 0.235722 0.703876 0.413508
251 3 0.273726 0.643695 0.43053
252 4 0.192051 0.69721 0.430249
253 1 0.320602 0.673589 0.478548
254 3 0.319773 0.719658 0.529684
255 4 0.363442 0.672575 0.459174
256 1 0.353985 0.678814 0.577476
257 3 0.418538 0.641689 0.581174
258 4 0.329917 0.656606 0.607011
259 1 0.466291 0.697563 0.599941
260 3 0.457869 0.713651 0.663539
261 4 0.48716 0.731844 0.580707
262 1 0.511671 0.665061 0.689309
263 3 0.583225 0.650849 0.675097
264 4 0.486756 0.630421 0.705811
265 1 0.615702 0.671774 0.734529
266 3 0.605608 0.631498 0.786777
267 4 0.629622 0.712357 0.746221
268 1 0.674935 0.60273 0.798663
269 3 0.663122 0.601384 0.864092
270 4 0.720809 0.59522 0.793791
271 1 0.648157 0.673878 0.87425
272 3 0.586839 0.703853 0.899391
273 4 0.676914 0.710157 0.885357
274 1 0.53452 0.682044 0.853874
275 3 0.492249 0.741533 0.858383
276 4 0.514997 0.66777 0.889974
277 1 0.517508 0.776777 0.802895
278 3 0.499781 0.74256 0.746188
279 4 0.553508 0.804393 0.789862
280 1 0.428408 0.766849 0.73635
281 3 0.417585 0.835786 0.717598
282 4 0.38891 0.749532 0.75267
283 1 0.410849 0.82663 0.650458
284 3 0.379943 0.776352 0.61123
285 4 0.449123 0.843165 0.630589
286 1 0.333669 0.819674 0.573366
287 3 0.351298 0.87359 0.531064
288 4 0.287467 0.829564 0.584867
289 1 0.336635 0.839569 0.471364
290 3 0.288027 0.792113 0.4459
291 4 0.376757 0.828993 0.449965
292 1 0.244609 0.835626 0.406122
293 3 0.234503 0.841528 0.340397
294 4 0.204863 0.857201 0.418539
295 1 0.304038 0.867895 0.321566
296 3 0.367926 0.856971 0.289556
297 4 0.311816 0.912603 0.319755
298 1 0.379552 0.7848 0.30387
299 3 0.454293 0.788358 0.304741
300 4 0.381185 0.782402 0.26144
301 1 0.465288 0.822711 0.365328
302 3 0.516698 0.872684 0.353292
303 4 0.49978 0.791034 0.359761
304 1 0.473228 0.929006 0.331968
305 3 0.495315 0.982757 0.36971
306 4 0.445629 0.943669 0.300497
307 1 0.440045 0.976532 0.420135
308 3 0.409925 0.921509 0.454342
309 4 0.409465 1.01079 0.414359
310 1 0.427374 0.941057 0.517831
311 3 0.419017 1.00139 0.552239
312 4 0.467404 0.920617 0.532143
313 1 0.373948 0.97749 0.603007
314 3 0.367796 0.916592 0.638112
315 4 0.329675 0.993256 0.59666
316 1 0.38156 0.940783 0.700543
317 3 0.310867 0.949744 0.72231
318 4 0.403201 0.966058 0.730331
319 1 0.293195 0.879841 0.739877
320 3 0.272351 0.870707 0.80295
321 4 0.280857 0.842884 0.719045
322 1 0.341265 0.849771 0.829666
323 3 0.398304 0.871562 0.865234
324 4 0.319692 0.810512 0.84017
