LAMMPS protain data file

         492  atoms
         654  bonds
           0  angles
           0  dihedrals
           0  impropers

           5  atom types
           5  bond types
           0  angle types
           0  dihedral types
           0  improper types

-200.0	200.0	xlo xhi
-200.0	200.0	ylo yhi
-200.0	200.0	zlo zhi

Masses

           1	27.0
           2	14.0
           3	28.0
           4	60.0
           5	60.0

Atoms

           1	1	1	1	0.0	36.81499863	-23.3010006	8.91899967
           2	1	1	3	0.0	34.4640007	-23.24200058	9.17199993
           3	1	1	4	0.0	37.0909996	-22.9640007	7.44799995
           4	1	2	1	0.0	34.55099869	-20.90800095	10.77600002
           5	1	2	3	0.0	36.06900024	-19.10300064	10.53499985
           6	1	2	4	0.0	34.15399933	-21.46699905	12.17199993
           7	1	3	1	0.0	34.20100021	-17.08200073	11.08600044
           8	1	3	3	0.0	36.18999863	-15.80099964	11.6789999
           9	1	3	4	0.0	32.89099884	-16.33300018	11.47799969
          10	1	4	1	0.0	36.65800095	-17.0359993	14.03199959
          11	1	4	3	0.0	38.93299866	-16.55800056	13.49699974
          12	1	4	4	0.0	36.57600021	-17.70899963	15.41600037
          13	1	5	1	0.0	39.43199921	-18.87000084	12.23999977
          14	1	5	3	0.0	40.68700027	-17.72900009	10.66399956
          15	1	5	4	0.0	39.40000153	-20.26799965	11.7159996
          16	1	6	1	0.0	38.66899872	-16.93799973	9.11800003
          17	1	6	3	0.0	40.12099838	-15.05799961	8.82600021
          18	1	6	4	0.0	37.3429985	-16.5909996	8.47700024
          19	1	7	1	0.0	39.07699966	-13.66300011	10.92199993
          20	1	7	3	0.0	41.18999863	-12.67199993	11.44699955
          21	1	7	4	0.0	38.10800171	-12.93400002	11.84200001
          22	1	8	1	0.0	42.11299896	-14.79500008	12.79500008
          23	1	8	3	0.0	44.21900177	-14.25800037	11.75199986
          24	1	8	4	0.0	42.20299911	-15.93299961	13.76799965
          25	1	9	1	0.0	43.77500153	-15.47000027	9.37300014
          26	1	9	3	0.0	44.95899963	-13.53499985	8.44999981
          27	1	9	4	0.0	43.33800125	-16.54500008	8.36100006
          28	1	10	1	0.0	42.78699875	-12.07299995	8.01200008
          29	1	10	3	0.0	43.85200119	-9.95199966	8.26299953
          30	1	10	4	0.0	41.35699844	-11.72900009	7.57800007
          31	1	11	1	0.0	43.6969986	-9.89999962	11.01000023
          32	1	11	3	0.0	45.56000137	-9.15400028	12.23999977
          33	1	11	4	0.0	42.64199829	-9.74600029	12.09200001
          34	1	12	1	0.0	46.55500031	-11.67500019	12.72900009
          35	1	12	3	0.0	45.11100006	-11.23999977	14.53600025
          36	1	12	5	0.0	45.35900116	-11.33213519	11.7252702
          37	1	13	1	0.0	47.19900131	-11.5010004	16.41900063
          38	1	13	3	0.0	49.49300003	-11.18999958	16.65099907
          39	1	13	4	0.0	47.26300049	-12.83100033	17.16699982
          40	1	14	1	0.0	49.27199936	-8.75199986	18.03800011
          41	1	14	3	0.0	47.93700027	-7.92700005	19.83300018
          42	1	14	4	0.0	49.47499847	-7.53700018	17.14500046
          43	1	15	1	0.0	49.7879982	-8.46000004	21.78199959
          44	1	15	3	0.0	50.12799835	-6.82200003	23.43499947
          45	1	15	4	0.0	50.45700073	-9.53800011	22.61000061
          46	1	16	1	0.0	51.23600006	-5.0	21.63400078
          47	1	16	3	0.0	50.17200089	-4.25500011	19.59199905
          48	1	16	4	0.0	52.77399826	-5.02199984	21.54700089
          49	1	17	1	0.0	49.47499847	-1.78100002	20.3939991
          50	1	17	3	0.0	51.40299988	-1.66400003	19.08499908
          51	1	17	4	0.0	49.35900116	-0.359	20.92000008
          52	1	18	1	0.0	50.13299942	-1.46000004	16.75900078
          53	1	18	3	0.0	48.2140007	-0.237	16.28199959
          54	1	18	4	0.0	50.47000122	-2.86599994	16.17200089
          55	1	19	1	0.0	49.02899933	0.56	13.77400017
          56	1	19	3	0.0	49.28300095	-1.08700001	12.10200024
          57	1	19	4	0.0	49.71699905	1.70299995	13.10000038
          58	1	20	1	0.0	46.68999863	-0.99299997	11.35499954
          59	1	20	3	0.0	47.88499832	0.44299999	9.82299995
          60	1	20	4	0.0	45.20199966	-1.03799999	11.68900013
          61	1	21	1	0.0	46.87799835	-0.73900002	7.55100012
          62	1	21	3	0.0	47.23699951	1.29200006	6.44899988
          63	1	21	4	0.0	46.13499832	-1.61800003	6.4829998
          64	1	22	1	0.0	45.17399979	2.70700002	7.77400017
          65	1	22	3	0.0	45.83100128	4.8920002	8.53299999
          66	1	22	4	0.0	43.70600128	2.83200002	8.14599991
          67	1	23	1	0.0	47.52199936	3.93700004	10.45100021
          68	1	23	3	0.0	47.45800018	4.70499992	12.66399956
          69	1	23	5	0.0	46.74100113	4.3717218	9.79061772
          70	1	24	1	0.0	45.17699814	3.48600006	13.43299961
          71	1	24	3	0.0	45.95600128	1.35399997	14.10299969
          72	1	24	4	0.0	43.68500137	3.33999991	13.34799957
          73	1	25	1	0.0	45.95899963	2.15100002	16.875
          74	1	25	3	0.0	43.79600143	1.23000002	17.22900009
          75	1	25	4	0.0	46.01699829	3.1329999	18.0510006
          76	1	26	1	0.0	44.89300156	-1.53499997	17.14100075
          77	1	26	3	0.0	46.78699875	-2.20300007	18.50300026
          78	1	26	4	0.0	44.8219986	-2.12800002	15.6619997
          79	1	27	1	0.0	45.64300156	-4.46700001	19.41300011
          80	1	27	3	0.0	43.81399918	-5.81400013	18.64800072
          81	1	27	4	0.0	45.76100159	-4.03000021	20.87899971
          82	1	28	1	0.0	44.84700012	-8.22399998	19.50099945
          83	1	28	3	0.0	45.44300079	-8.63799953	17.23900032
          84	1	28	5	0.0	45.47999954	-8.66431111	19.04002337
          85	1	29	1	0.0	42.8409996	-9.52799988	16.62700081
          86	1	29	3	0.0	40.73400116	-8.60200024	15.86600018
          87	1	29	4	0.0	42.15299988	-10.9090004	16.70899963
          88	1	30	1	0.0	42.00799942	-6.38999987	14.61999989
          89	1	30	3	0.0	40.13899994	-4.90299988	14.8920002
          90	1	30	5	0.0	42.64599991	-5.50411407	12.47809113
          91	1	31	1	0.0	40.43500137	-4.56400013	17.53899956
          92	1	31	3	0.0	41.86000061	-2.74699998	18.11100006
          93	1	31	4	0.0	40.52299881	-4.9829998	19.01799965
          94	1	32	1	0.0	40.49900055	-0.86199999	16.55500031
          95	1	32	3	0.0	39.40399933	-0.31999999	18.67499924
          96	1	32	4	0.0	39.62799835	-0.178	15.50599957
          97	1	33	1	0.0	41.2859993	1.20799994	19.60700035
          98	1	33	3	0.0	39.94200134	3.10500002	20.2140007
          99	1	33	4	0.0	42.57799911	1.13199997	20.40800095
         100	1	34	1	0.0	41.0929985	4.76800013	18.31500053
         101	1	34	3	0.0	42.52799988	4.62799978	16.44300079
         102	1	34	4	0.0	41.70000076	5.73999977	19.41399956
         103	1	35	1	0.0	41.32300186	6.76300001	15.1239996
         104	1	35	3	0.0	42.90999985	8.42599964	14.52799988
         105	1	35	4	0.0	40.22700119	7.20100021	14.22700024
         106	1	36	1	0.0	43.1570015	9.38300037	17.22299957
         107	1	36	3	0.0	45.19800186	8.0170002	17.31599998
         108	1	36	4	0.0	42.83599854	9.85599995	18.62999916
         109	1	37	1	0.0	46.72000122	10.06900024	16.54899979
         110	1	37	3	0.0	48.74700165	9.71899986	17.72400093
         111	1	37	4	0.0	47.14500046	11.11699963	15.5539999
         112	1	38	1	0.0	47.60300064	9.88599968	20.15500069
         113	1	38	3	0.0	46.72900009	7.80299997	21.01000023
         114	1	38	4	0.0	47.12400055	10.88399982	21.20299911
         115	1	39	1	0.0	49.25999832	6.76000023	21.52599907
         116	1	39	3	0.0	48.58499908	5.67799997	23.62700081
         117	1	39	4	0.0	50.72200012	6.30299997	21.34000015
         118	1	40	1	0.0	48.19599915	8.04399967	24.84499931
         119	1	40	3	0.0	46.1269989	7.24399996	25.6420002
         120	1	40	4	0.0	48.59400177	9.34000015	25.54500008
         121	1	41	1	0.0	44.64799881	8.23600006	23.68099976
         122	1	41	3	0.0	43.52500153	6.17399979	24.19400024
         123	1	41	4	0.0	44.0530014	9.00699997	22.51600075
         124	1	42	1	0.0	45.2140007	4.62099981	22.49200058
         125	1	42	3	0.0	44.61800003	2.83200002	23.92399979
         126	1	42	4	0.0	46.30199814	4.17399979	21.48900032
         127	1	43	1	0.0	46.52399826	3.27399993	25.8010006
         128	1	43	3	0.0	45.125	2.55900002	27.65800095
         129	1	43	4	0.0	47.7879982	3.5710001	26.54400063
         130	1	44	1	0.0	43.67900085	4.88600016	27.59000015
         131	1	44	3	0.0	41.76800156	3.45499992	28.07500076
         132	1	44	4	0.0	43.54700089	6.40199995	27.56200027
         133	1	45	1	0.0	41.04800034	3.26399994	25.34199905
         134	1	45	3	0.0	40.50299835	1.01699996	26.07600021
         135	1	45	4	0.0	41.05599976	3.49699998	23.81900024
         136	1	46	1	0.0	42.9659996	0.051	25.79500008
         137	1	46	3	0.0	42.15599823	-1.46899998	27.47699928
         138	1	46	4	0.0	44.41500092	-0.25	25.3939991
         139	1	47	1	0.0	42.8769989	0.13699999	29.62000084
         140	1	47	3	0.0	41.00099945	-0.68199998	30.90600014
         141	1	47	4	0.0	43.58200073	1.204	30.47599983
         142	1	48	1	0.0	39.17399979	1.03199995	29.53499985
         143	1	48	3	0.0	37.73600006	-0.90499997	29.69599915
         144	1	48	4	0.0	38.6590004	2.23399997	28.72699928
         145	1	49	1	0.0	38.54999924	-1.977	27.28800011
         146	1	49	3	0.0	37.99700165	-4.13700008	28.20599937
         147	1	49	4	0.0	38.92599869	-2.02099991	25.80599976
         148	1	50	1	0.0	40.53900146	-4.49800014	29.38999939
         149	1	50	3	0.0	40.13100052	-5.5	31.56200027
         150	1	50	4	0.0	42.06600189	-4.53800011	29.19599915
         151	1	51	1	0.0	39.66699982	-3.18099999	32.83399963
         152	1	51	3	0.0	40.72299957	-3.55299997	34.9620018
         153	1	51	5	0.0	39.99700165	-2.85363163	31.49737194
         154	1	52	1	0.0	43.2859993	-2.8599999	34.0909996
         155	1	52	3	0.0	44.10300064	-1.59000003	32.30400085
         156	1	52	4	0.0	43.93099976	-4.21899986	34.28099823
         157	1	53	1	0.0	46.47900009	-0.82300001	33.6570015
         158	1	53	3	0.0	48.06399918	-2.50999999	33.11399841
         159	1	53	4	0.0	47.44599915	-0.37400001	34.7179985
         160	1	54	1	0.0	47.84799957	-2.36800003	30.63699913
         161	1	54	3	0.0	50.01200104	-2.76200008	29.89900017
         162	1	54	4	0.0	47.0870018	-2.72799993	29.34799957
         163	1	55	1	0.0	50.64699936	-0.19599999	29.70100021
         164	1	55	3	0.0	51.98300171	-0.90100002	27.85000038
         165	1	55	4	0.0	51.74200058	-0.70999998	30.66600037
         166	1	56	1	0.0	50.06999969	-1.01499999	25.95700073
         167	1	56	3	0.0	50.32899857	-2.93400002	24.47299957
         168	1	56	5	0.0	49.86299896	-0.33318962	23.16348381
         169	1	57	1	0.0	50.32699966	-4.74300003	26.27899933
         170	1	57	3	0.0	49.06499863	-5.4460001	28.10700035
         171	1	57	4	0.0	51.63700104	-5.19199991	26.84399986
         172	1	58	1	0.0	47.78900146	-7.51900005	26.71500015
         173	1	58	3	0.0	49.14599991	-9.31000042	25.77000046
         174	1	58	4	0.0	46.40999985	-7.25	26.07799911
         175	1	59	1	0.0	47.79600143	-11.35000038	27.16900063
         176	1	59	3	0.0	46.0019989	-11.28999996	25.55599976
         177	1	59	4	0.0	47.4980011	-12.03800011	28.55999947
         178	1	60	1	0.0	46.49100113	-13.90299988	24.58600044
         179	1	60	3	0.0	44.16799927	-13.75399971	24.02400017
         180	1	60	4	0.0	46.95999908	-15.3380003	24.37700081
         181	1	61	1	0.0	43.46699905	-14.46199989	26.7310009
         182	1	61	3	0.0	41.47600174	-13.29500008	26.22100067
         183	1	61	4	0.0	43.64899826	-14.84200001	28.20400047
         184	1	62	1	0.0	42.59899902	-10.72500038	26.80800056
         185	1	62	3	0.0	41.27899933	-9.83399963	25.08300018
         186	1	62	4	0.0	43.50400162	-9.63000011	27.36199951
         187	1	63	1	0.0	42.98400116	-10.58100033	23.08699989
         188	1	63	3	0.0	41.08399963	-10.91899967	21.77099991
         189	1	63	4	0.0	44.20899963	-10.97700024	22.28100014
         190	1	64	1	0.0	40.66400146	-13.47399998	22.61700058
         191	1	64	3	0.0	38.29399872	-13.18099976	22.53700066
         192	1	64	4	0.0	40.93099976	-14.92700005	22.89900017
         193	1	65	1	0.0	38.14899826	-11.90699959	24.95800018
         194	1	65	3	0.0	36.41799927	-10.72700024	23.74900055
         195	1	65	4	0.0	38.31499863	-11.44099998	26.36000061
         196	1	66	1	0.0	38.11700058	-8.74199963	22.86499977
         197	1	66	3	0.0	36.5719986	-8.78800011	21.02099991
         198	1	66	4	0.0	39.31600189	-7.829	22.4810009
         199	1	67	1	0.0	37.79100037	-10.92399979	19.75099945
         200	1	67	3	0.0	35.52899933	-11.26000023	19.02400017
         201	1	67	4	0.0	38.82400131	-11.98600006	19.35199928
         202	1	68	1	0.0	34.79800034	-12.81900024	21.14699936
         203	1	68	3	0.0	32.64099884	-11.76099968	20.55200005
         204	1	68	4	0.0	34.75899887	-13.62199974	22.47599983
         205	1	69	1	0.0	33.0929985	-9.48099995	21.83399963
         206	1	69	3	0.0	31.70899963	-8.4090004	20.24200058
         207	1	69	4	0.0	33.64899826	-8.35900021	22.71500015
         208	1	70	1	0.0	33.77799988	-8.06000042	18.47800064
         209	1	70	3	0.0	32.39400101	-8.24400043	16.53499985
         210	1	70	4	0.0	35.13199997	-7.59299994	17.89900017
         211	1	71	1	0.0	32.46099854	-11.03199959	16.4810009
         212	1	71	3	0.0	30.0720005	-10.79399967	15.95499992
         213	1	71	4	0.0	33.04000092	-12.50599957	16.45100021
         214	1	72	1	0.0	29.35199928	-11.0170002	18.60499954
         215	1	72	3	0.0	27.59799957	-9.59899998	17.72999954
         216	1	72	4	0.0	29.34600067	-11.30700016	20.13800049
         217	1	73	1	0.0	28.87899971	-7.25500011	18.18000031
         218	1	73	3	0.0	27.70000076	-6.51399994	16.23500061
         219	1	73	4	0.0	29.86400032	-6.17000008	18.60899925
         220	1	74	1	0.0	29.39299965	-7.57700014	14.36499977
         221	1	74	3	0.0	27.3010006	-7.80600023	13.20199966
         222	1	74	4	0.0	30.56200027	-8.25300026	13.63000011
         223	1	75	1	0.0	26.72800064	-10.3409996	14.09799957
         224	1	75	3	0.0	24.50900078	-9.44099998	13.67000008
         225	1	75	4	0.0	26.72299957	-11.77000046	14.68599987
         226	1	76	1	0.0	24.16500092	-8.36299992	16.25799942
         227	1	76	3	0.0	22.89100075	-6.63000011	15.17399979
         228	1	76	4	0.0	24.27700043	-8.19400024	17.77300072
         229	1	77	1	0.0	25.03899956	-5.31799984	14.30500031
         230	1	77	3	0.0	23.45599937	-4.85200024	12.55200005
         231	1	77	5	0.0	25.0909996	-3.69061854	13.43955838
         232	1	78	1	0.0	23.99500084	-7.12699986	11.0880003
         233	1	78	3	0.0	21.64900017	-6.96899986	10.51000023
         234	1	78	4	0.0	24.60199928	-8.43099976	10.50199986
         235	1	79	1	0.0	20.86700058	-8.42599964	12.625
         236	1	79	3	0.0	18.77099991	-7.40299988	12.60999966
         237	1	79	4	0.0	20.71999931	-9.59599972	13.60700035
         238	1	80	1	0.0	19.80699921	-4.83599997	13.71399975
         239	1	80	3	0.0	19.13400078	-2.78800011	12.65299988
         240	1	80	4	0.0	20.54700089	-4.079	14.78499985
         241	1	81	1	0.0	20.56299973	-3.16799998	10.50899982
         242	1	81	3	0.0	19.34300041	-4.69500017	9.09500027
         243	1	81	4	0.0	21.98399925	-3.21600008	9.94999981
         244	1	82	1	0.0	17.64900017	-2.90799999	8.14999962
         245	1	82	3	0.0	17.43899918	-3.71799994	5.91300011
         246	1	82	4	0.0	16.59600067	-1.83399999	8.20100021
         247	1	83	1	0.0	19.83200073	-3.0250001	5.06899977
         248	1	83	3	0.0	20.60000038	-5.10699987	4.07299995
         249	1	83	4	0.0	20.8390007	-1.94799995	4.67700005
         250	1	84	1	0.0	21.98900032	-5.87799978	6.19099998
         251	1	84	3	0.0	21.57099915	-8.25599957	5.92999983
         252	1	84	4	0.0	23.13299942	-5.64300013	7.19799995
         253	1	85	1	0.0	19.56800079	-8.19200039	7.90500021
         254	1	85	3	0.0	19.22299957	-10.31299973	6.82200003
         255	1	85	4	0.0	18.59499931	-7.82499981	9.02200031
         256	1	86	1	0.0	17.72599983	-9.28299999	4.80299997
         257	1	86	3	0.0	18.52000046	-11.01500034	3.45799994
         258	1	86	4	0.0	17.02700043	-8.27700043	3.88000011
         259	1	87	1	0.0	20.93499947	-9.91100025	2.91799998
         260	1	87	3	0.0	21.56200027	-12.27299976	3.06399989
         261	1	87	4	0.0	22.07799911	-8.93400002	2.62400007
         262	1	88	1	0.0	22.25	-12.00599957	5.74700022
         263	1	88	3	0.0	21.64699936	-14.29800034	5.45699978
         264	1	88	4	0.0	22.42200089	-11.39900017	7.1329999
         265	1	89	1	0.0	18.96899986	-13.99800014	5.98799992
         266	1	89	3	0.0	18.59600067	-15.8760004	4.55499983
         267	1	89	4	0.0	17.57900047	-13.40299988	6.28299999
         268	1	90	1	0.0	19.11300087	-14.7329998	2.34599996
         269	1	90	3	0.0	20.29000092	-16.43600082	1.16400003
         270	1	90	4	0.0	18.96800041	-13.76000023	1.17200005
         271	1	91	1	0.0	22.65500069	-16.16399956	2.4059999
         272	1	91	3	0.0	22.38699913	-17.68099976	4.18900013
         273	1	91	4	0.0	23.91500092	-15.31299973	2.7980001
         274	1	92	1	0.0	24.06399918	-19.67499924	3.00200009
         275	1	92	3	0.0	25.51399994	-18.3390007	4.42999983
         276	1	92	4	0.0	24.61800003	-20.58699989	1.96300006
         277	1	93	1	0.0	26.38999939	-20.32099915	5.95200014
         278	1	93	3	0.0	28.2840004	-18.98699951	6.46899986
         279	1	93	4	0.0	26.43600082	-21.46500015	6.93100023
         280	1	94	1	0.0	29.67700005	-19.65500069	4.125
         281	1	94	3	0.0	30.40299988	-17.35300064	4.41400003
         282	1	94	4	0.0	30.32999992	-20.56999969	3.06900001
         283	1	95	1	0.0	28.58799934	-16.36199951	2.53699994
         284	1	95	3	0.0	28.77499962	-14.39299965	3.84100008
         285	1	95	4	0.0	27.6439991	-16.19199944	1.37199998
         286	1	96	1	0.0	27.23699951	-15.25500011	5.94399977
         287	1	96	3	0.0	28.67300034	-13.66800022	7.03399992
         288	1	96	4	0.0	26.28199959	-15.89299965	6.94700003
         289	1	97	1	0.0	30.81699944	-15.58600044	7.31500006
         290	1	97	3	0.0	32.13600159	-13.54599953	7.19999981
         291	1	97	4	0.0	31.6420002	-16.87000084	7.32499981
         292	1	98	1	0.0	31.89999962	-13.3579998	4.39499998
         293	1	98	3	0.0	32.08599854	-11.00500011	4.76900005
         294	1	98	4	0.0	31.77400017	-13.6619997	2.91400003
         295	1	99	1	0.0	29.47900009	-10.58500004	5.35699987
         296	1	99	3	0.0	30.15500069	-9.0170002	7.02899981
         297	1	99	4	0.0	27.92300034	-10.71800041	5.36399984
         298	1	100	1	0.0	30.47800064	-10.81400013	8.99800014
         299	1	100	3	0.0	32.29100037	-9.30500031	9.63099957
         300	1	100	4	0.0	30.41300011	-12.00199986	9.96800041
         301	1	101	1	0.0	34.15200043	-10.45600033	7.85699987
         302	1	101	3	0.0	34.86199951	-8.19499969	8.07499981
         303	1	101	4	0.0	34.86500168	-11.37199974	6.88100004
         304	1	102	1	0.0	33.35100174	-7.3119998	5.9369998
         305	1	102	3	0.0	33.56999969	-5.24499989	7.16099977
         306	1	102	4	0.0	32.36700058	-7.16699982	4.77199984
         307	1	103	1	0.0	31.40500069	-5.75899982	8.74699974
         308	1	103	3	0.0	32.42900085	-4.53299999	10.60400009
         309	1	103	4	0.0	30.00900078	-6.22599983	9.18299961
         310	1	104	1	0.0	34.02899933	-6.63899994	11.3409996
         311	1	104	3	0.0	35.43600082	-4.82000017	11.82199955
         312	1	104	4	0.0	34.66999817	-8.02600002	11.43999958
         313	1	105	1	0.0	36.68299866	-4.78100014	9.19799995
         314	1	105	3	0.0	37.01699829	-2.3829999	9.10700035
         315	1	105	4	0.0	37.07899857	-5.29899979	7.77899981
         316	1	106	1	0.0	34.76300049	-1.79799998	8.11999989
         317	1	106	3	0.0	32.92200089	-0.27399999	8.15600014
         318	1	106	4	0.0	34.95100021	-1.73599994	6.57800007
         319	1	107	1	0.0	31.76199913	-1.29700005	10.42500019
         320	1	107	3	0.0	30.5739994	-1.53699994	8.31000042
         321	1	107	5	0.0	33.01499939	-0.66232567	10.87910276
         322	1	108	1	0.0	27.96699905	-1.63199997	9.60999966
         323	1	108	3	0.0	27.33399963	-0.96899998	7.32600021
         324	1	108	4	0.0	26.95599937	-1.20500004	10.69999981
         325	1	109	1	0.0	27.7140007	1.704	8.08100033
         326	1	109	3	0.0	27.88199997	1.55499995	5.69399977
         327	1	109	4	0.0	28.19000053	2.94300008	8.82499981
         328	1	110	1	0.0	30.5909996	1.04499996	5.74300003
         329	1	110	3	0.0	29.38500023	0.56999999	3.65899992
         330	1	110	5	0.0	29.79599953	1.33965704	4.86697826
         331	1	111	1	0.0	29.18199921	-2.22600007	4.34899998
         332	1	111	3	0.0	27.62199974	-2.16100001	2.63599992
         333	1	111	4	0.0	29.07099915	-3.47000003	5.11999989
         334	1	112	1	0.0	25.69199944	-0.86299998	4.26399994
         335	1	112	3	0.0	24.8220005	-0.026	2.18199992
         336	1	112	4	0.0	24.72299957	-0.44100001	5.37300014
         337	1	113	1	0.0	27.20599937	1.54900002	1.472
         338	1	113	3	0.0	27.77000046	1.17499995	-1.02199996
         339	1	113	5	0.0	26.95999908	2.75013565	1.02898501
         340	1	114	1	0.0	27.86499977	-1.26499999	-0.85100001
         341	1	114	3	0.0	26.12299919	-2.77800012	-1.58899999
         342	1	114	4	0.0	28.70100021	-2.4289999	-0.336
         343	1	115	1	0.0	24.2859993	-0.87099999	-1.96000004
         344	1	115	3	0.0	23.2310009	-2.67799997	-2.99600005
         345	1	115	4	0.0	23.59199905	0.41299999	-2.39700007
         346	1	116	1	0.0	24.6590004	-2.37199998	-5.42199993
         347	1	116	3	0.0	24.48500061	-4.76800013	-5.83099985
         348	1	116	4	0.0	25.25099945	-1.65900004	-6.69799995
         349	1	117	1	0.0	26.79299927	-5.32800007	-4.25099993
         350	1	117	3	0.0	25.63800049	-7.25	-3.55800009
         351	1	117	4	0.0	28.10300064	-5.26800013	-3.46199989
         352	1	118	1	0.0	24.2859993	-6.00099993	-1.46899998
         353	1	118	3	0.0	22.65399933	-7.6500001	-2.03600001
         354	1	118	4	0.0	23.81200027	-5.09899998	-0.29499999
         355	1	119	1	0.0	21.51099968	-6.17500019	-4.02199984
         356	1	119	3	0.0	20.97500038	-8.31499958	-4.91599989
         357	1	119	4	0.0	21.02899933	-4.99700022	-4.84899998
         358	1	120	1	0.0	23.45599937	-8.57999992	-6.20300007
         359	1	120	3	0.0	23.25200081	-10.96000004	-5.71000004
         360	1	120	4	0.0	24.72500038	-8.2670002	-7.03200006
         361	1	121	1	0.0	24.27099991	-10.85900021	-3.329
         362	1	121	3	0.0	22.58499908	-12.59200001	-3.18700004
         363	1	121	4	0.0	24.99399948	-10.48099995	-2.02200007
         364	1	122	1	0.0	20.63999939	-10.85499954	-2.37100005
         365	1	122	3	0.0	19.1590004	-12.48200035	-3.33699989
         366	1	122	4	0.0	19.82500076	-9.63399982	-1.995
         367	1	123	1	0.0	19.71800041	-11.80799961	-5.83400011
         368	1	123	3	0.0	20.06699944	-13.56400013	-7.26800013
         369	1	123	4	0.0	19.5909996	-10.88399982	-7.02699995
         370	1	124	1	0.0	22.37199974	-14.61299992	-5.88399982
         371	1	124	3	0.0	23.39500046	-15.56599998	-7.76499987
         372	1	124	4	0.0	21.7670002	-16.00699997	-5.69500017
         373	1	125	1	0.0	24.26600075	-13.06400013	-8.72500038
         374	1	125	3	0.0	26.33799934	-11.82800007	-8.27299976
         375	1	125	4	0.0	23.77000046	-11.83100033	-9.3920002
         376	1	126	1	0.0	27.60400009	-14.31099987	-7.57700014
         377	1	126	3	0.0	29.54899979	-12.97200012	-7.63600016
         378	1	126	4	0.0	27.93499947	-15.6789999	-6.9920001
         379	1	127	1	0.0	29.93799973	-13.3760004	-10.40699959
         380	1	127	3	0.0	30.81699944	-11.16800022	-10.36999989
         381	1	127	4	0.0	29.99200058	-14.06999969	-11.79100037
         382	1	128	1	0.0	28.43600082	-9.96000004	-10.90100002
         383	1	128	3	0.0	29.31800079	-8.15699959	-9.62199974
         384	1	128	4	0.0	27.01000023	-9.60299969	-11.38199997
         385	1	129	1	0.0	28.59600067	-9.16300011	-7.32299995
         386	1	129	3	0.0	30.59399986	-8.24300003	-6.33799982
         387	1	129	4	0.0	27.84199905	-9.73799992	-6.17000008
         388	1	130	1	0.0	32.34799957	-10.23200035	-7.1789999
         389	1	130	3	0.0	33.83399963	-8.38000011	-7.35400009
         390	1	130	4	0.0	32.86500168	-11.58300018	-7.64900017
         391	1	131	1	0.0	33.09500122	-7.84800005	-10.02900028
         392	1	131	3	0.0	33.63899994	-5.64599991	-9.32900047
         393	1	131	4	0.0	32.5870018	-7.93400002	-11.45300007
         394	1	132	1	0.0	31.1609993	-4.94500017	-8.35900021
         395	1	132	3	0.0	32.30699921	-3.59899998	-6.71700001
         396	1	132	4	0.0	29.65500069	-4.91800022	-7.9460001
         397	1	133	1	0.0	32.73199844	-5.51300001	-4.94299984
         398	1	133	3	0.0	34.68799973	-4.41800022	-4.16499996
         399	1	133	4	0.0	32.82400131	-6.88899994	-4.19999981
         400	1	134	1	0.0	36.21699905	-5.05100012	-6.52199984
         401	1	134	3	0.0	37.6269989	-3.19799995	-6.84499979
         402	1	134	4	0.0	36.81100082	-6.06099987	-7.48799992
         403	1	135	1	0.0	35.41899872	-1.49899995	-7.57499981
         404	1	135	3	0.0	34.14400101	-0.126	-6.10500002
         405	1	135	4	0.0	34.25899887	-1.20899999	-8.45100021
         406	1	136	1	0.0	36.02199936	-0.149	-4.16499996
         407	1	136	3	0.0	38.38600159	-0.52999997	-3.82399988
         408	1	136	4	0.0	35.33000183	-1.10699999	-3.23900008
         409	1	137	1	0.0	38.65999985	1.62399995	-2.13199997
         410	1	137	3	0.0	40.3370018	0.123	-1.26600003
         411	1	137	4	0.0	38.42399979	2.80900002	-1.18599999
         412	1	138	1	0.0	38.44300079	-1.46399999	0.17
         413	1	138	3	0.0	40.33200073	-2.91300011	0.053
         414	1	138	4	0.0	37.08300018	-2.20099998	0.45199999
         415	1	139	1	0.0	39.67100143	-3.73200011	-2.62899995
         416	1	139	3	0.0	42.02399826	-3.8440001	-2.84100008
         417	1	139	4	0.0	38.9620018	-3.83599997	-3.94899988
         418	1	140	1	0.0	42.375	-1.23300004	-3.74799991
         419	1	140	3	0.0	44.59899902	-1.37100005	-2.73200011
         420	1	140	4	0.0	42.07099915	0.12800001	-4.40999985
         421	1	141	1	0.0	43.67699814	-0.74800003	-0.207
         422	1	141	3	0.0	45.34799957	-2.07800007	0.83399999
         423	1	141	4	0.0	43.02999878	0.113	0.903
         424	1	142	1	0.0	43.80599976	-4.37099981	0.94099998
         425	1	142	3	0.0	42.4640007	-6.15999985	0.44100001
         426	1	142	4	0.0	43.18600082	-4.63500023	2.33299994
         427	1	143	1	0.0	43.65200043	-6.46600008	-2.22399998
         428	1	143	3	0.0	42.79999924	-8.67099953	-2.29299998
         429	1	143	4	0.0	44.63399887	-6.22100019	-3.37800002
         430	1	144	1	0.0	44.7820015	-9.89599991	-0.824
         431	1	144	3	0.0	43.01100159	-11.35700035	-0.086
         432	1	144	4	0.0	46.17100143	-10.14700031	-0.20900001
         433	1	145	1	0.0	42.23699951	-9.83300018	1.96399999
         434	1	145	3	0.0	40.01200104	-10.5539999	1.29900002
         435	1	145	4	0.0	42.1969986	-8.99699974	3.23399997
         436	1	146	1	0.0	39.50299835	-8.29399967	-0.25600001
         437	1	146	3	0.0	38.20399857	-10.03100014	-1.23300004
         438	1	146	4	0.0	39.38700104	-6.89400005	-0.86699998
         439	1	147	1	0.0	40.20800018	-11.0340004	-2.82999992
         440	1	147	3	0.0	38.95399857	-13.00300026	-2.66700006
         441	1	147	4	0.0	41.53099823	-11.37300014	-3.45499992
         442	1	148	1	0.0	39.8219986	-13.7159996	-0.212
         443	1	148	3	0.0	37.65399933	-14.61800003	0.005
         444	1	148	4	0.0	40.5929985	-13.99100018	1.08399999
         445	1	149	1	0.0	36.48600006	-12.31299973	0.96600002
         446	1	149	3	0.0	34.51399994	-13.08500004	-0.212
         447	1	149	4	0.0	36.29800034	-11.05099964	1.78900003
         448	1	150	1	0.0	35.34199905	-11.80099964	-2.50500011
         449	1	150	3	0.0	33.95199966	-13.51000023	-3.41499996
         450	1	150	4	0.0	35.91500092	-10.87800026	-3.57999992
         451	1	151	1	0.0	36.08300018	-15.45899963	-3.41100001
         452	1	151	3	0.0	34.45100021	-17.09700012	-3.1329999
         453	1	151	4	0.0	37.46099854	-16.12599945	-3.23799992
         454	1	152	1	0.0	34.15100098	-16.51300049	-0.42199999
         455	1	152	3	0.0	31.8390007	-17.04500008	-0.93900001
         456	1	152	4	0.0	34.5019989	-16.14900017	1.023
         457	1	153	1	0.0	31.13299942	-14.57499981	-1.75800002
         458	1	153	3	0.0	29.65800095	-15.57400036	-3.30200005
         459	1	153	4	0.0	30.92099953	-13.02999973	-1.92700005
         460	1	154	1	0.0	31.58699989	-15.74199963	-5.37300014
         461	1	154	3	0.0	30.36599922	-17.625	-6.13000011
         462	1	154	4	0.0	32.79700089	-15.52600002	-6.26800013
         463	1	155	1	0.0	31.97200012	-19.51199913	-4.61399984
         464	1	155	3	0.0	30.80699921	-21.21800041	-3.477
         465	1	155	4	0.0	33.37400055	-20.13599968	-4.55499983
         466	1	156	1	0.0	30.37299919	-20.02000046	-1.31599998
         467	1	156	3	0.0	30.63899994	-21.95000076	0.104
         468	1	156	5	0.0	31.07999992	-18.61588434	-0.62297111
         469	1	157	1	0.0	33.33100128	-22.25799942	-0.285
         470	1	157	3	0.0	34.56700134	-20.30599976	0.31999999
         471	1	157	4	0.0	34.0320015	-23.03100014	-1.38
         472	1	158	1	0.0	36.30799866	-21.68799973	2.01399994
         473	1	158	3	0.0	38.68500137	-21.87400055	1.84099996
         474	1	158	4	0.0	36.50999832	-22.44300079	3.32200003
         475	1	159	1	0.0	38.78699875	-22.31299973	-0.81900001
         476	1	159	3	0.0	41.0870018	-21.7689991	-0.53299999
         477	1	159	4	0.0	38.49700165	-22.34000015	-2.29500008
         478	1	160	1	0.0	40.63999939	-18.93600082	-0.53299999
         479	1	160	3	0.0	42.47299957	-18.38899994	0.94499999
         480	1	160	4	0.0	39.87200165	-17.61599922	-0.67299998
         481	1	161	1	0.0	41.45999908	-19.7329998	2.9920001
         482	1	161	3	0.0	42.61700058	-21.27400017	4.3579998
         483	1	161	4	0.0	40.38000107	-19.54999924	4.0999999
         484	1	162	1	0.0	42.44200134	-23.38199997	2.55599999
         485	1	162	3	0.0	44.63999939	-24.28800011	3.08599997
         486	1	162	4	0.0	41.49000168	-24.52199936	2.28299999
         487	1	163	1	0.0	45.62599945	-22.25499916	1.30900002
         488	1	163	3	0.0	47.51499939	-22.53100014	2.88199997
         489	1	163	4	0.0	45.33800125	-20.84700012	0.73400003
         490	1	164	1	0.0	46.50999832	-20.17399979	4.48199987
         491	1	164	3	0.0	47.10300064	-20.08600044	6.84200001
         492	1	164	4	0.0	45.73899841	-18.86400032	4.48899984

Bond Coeffs

           1	200.0	3.77
           2	200.0	2.41
           3	200.0	2.50
           4	200.0	1.54
           5	200.0	1.54
Bonds

           1	2	1	2
           2	4	1	3
           3	1	1	4
           4	3	2	4
           5	2	4	5