ITEM: TIMESTEP
0
ITEM: NUMBER OF ATOMS
492
ITEM: BOX BOUNDS ss ss ss
16.556 52.814
-24.562 11.157
-11.831 35.002
ITEM: ATOMS id type xs ys zs
1 1 0.558746 0.0353033 0.443064
2 3 0.493905 0.0369551 0.448466
3 4 0.566358 0.0447381 0.411654
4 1 0.496304 0.102298 0.482715
5 3 0.538171 0.152832 0.477569
6 4 0.485355 0.0866486 0.512523
7 1 0.486651 0.209412 0.489334
8 3 0.541508 0.245276 0.501996
9 4 0.450521 0.230382 0.497705
10 1 0.554416 0.2107 0.552239
11 3 0.61716 0.224082 0.540815
12 4 0.552154 0.191859 0.581791
13 1 0.630923 0.159355 0.513975
14 3 0.665536 0.191299 0.480324
15 4 0.63004 0.120216 0.502786
16 1 0.609879 0.213444 0.447313
17 3 0.649926 0.266077 0.441078
18 4 0.573308 0.223159 0.433626
19 1 0.621132 0.305132 0.485833
20 3 0.679409 0.332876 0.497043
21 4 0.594407 0.325541 0.505477
22 1 0.704865 0.27344 0.525826
23 3 0.762949 0.288474 0.503555
24 4 0.707347 0.24158 0.546602
25 1 0.750703 0.254542 0.452758
26 3 0.783358 0.308715 0.433049
27 4 0.738651 0.224446 0.431149
28 1 0.723454 0.349646 0.423697
29 3 0.752827 0.409026 0.429056
30 4 0.684015 0.359277 0.41443
31 1 0.748552 0.410482 0.487712
32 3 0.799934 0.431367 0.513975
33 4 0.719455 0.414793 0.510815
34 1 0.827376 0.360788 0.524417
35 3 0.78755 0.372967 0.563
36 5 0.79439 0.370387 0.502984
37 1 0.845138 0.36566 0.603207
38 3 0.908406 0.374367 0.608161
39 4 0.846903 0.328425 0.619179
40 1 0.902311 0.442622 0.637777
41 3 0.865492 0.465719 0.676104
42 4 0.90791 0.476637 0.618709
43 1 0.916543 0.450796 0.71772
44 3 0.92592 0.496654 0.753016
45 4 0.934994 0.420616 0.7354
46 1 0.956479 0.547664 0.71456
47 3 0.927133 0.568521 0.670958
48 4 0.998897 0.547048 0.712703
49 1 0.90791 0.637784 0.688083
50 3 0.961084 0.641059 0.660133
51 4 0.904711 0.677595 0.699315
52 1 0.926058 0.646771 0.610467
53 3 0.873132 0.68101 0.600282
54 4 0.935352 0.607408 0.597933
55 1 0.895609 0.703323 0.54673
56 3 0.902615 0.657213 0.511029
57 4 0.914584 0.735323 0.532338
58 1 0.831099 0.659845 0.495078
59 3 0.864058 0.700048 0.462366
60 4 0.79006 0.658585 0.50221
61 1 0.836284 0.666956 0.413853
62 3 0.846186 0.723816 0.390323
63 4 0.815792 0.642347 0.391049
64 1 0.789288 0.763431 0.418615
65 3 0.807408 0.824603 0.434822
66 4 0.7488 0.766931 0.426558
67 1 0.854046 0.797867 0.475776
68 3 0.852281 0.819368 0.523029
69 5 0.832506 0.810037 0.461675
70 1 0.789371 0.78524 0.539449
71 3 0.810856 0.725552 0.553755
72 4 0.748221 0.781153 0.537634
73 1 0.810938 0.747865 0.612944
74 3 0.751283 0.722081 0.620503
75 4 0.812538 0.775358 0.638054
76 1 0.781538 0.644671 0.618624
77 3 0.833775 0.625969 0.647706
78 4 0.77958 0.628069 0.587043
79 1 0.802223 0.562586 0.667136
80 3 0.751779 0.524875 0.650802
81 4 0.805477 0.57482 0.698439
82 1 0.780269 0.457404 0.669015
83 3 0.796707 0.445813 0.620716
84 5 0.797727 0.445077 0.659172
85 1 0.724943 0.420896 0.607648
86 3 0.666832 0.446821 0.591399
87 4 0.705968 0.382234 0.609399
88 1 0.701969 0.508749 0.564794
89 3 0.650422 0.550379 0.570602
90 5 0.719565 0.53355 0.519059
91 1 0.658586 0.55987 0.627122
92 3 0.697887 0.610739 0.639335
93 4 0.661013 0.54814 0.658702
94 1 0.660351 0.663512 0.606111
95 3 0.630151 0.678686 0.651378
96 4 0.636329 0.682662 0.583712
97 1 0.682056 0.721465 0.671279
98 3 0.644989 0.774574 0.68424
99 4 0.71769 0.719337 0.688382
100 1 0.676733 0.821132 0.643691
101 3 0.716311 0.817212 0.60372
102 4 0.693475 0.848344 0.667158
103 1 0.683077 0.876984 0.575556
104 3 0.726847 0.923542 0.56283
105 4 0.652849 0.889247 0.556403
106 1 0.733659 0.950335 0.620374
107 3 0.78995 0.912092 0.62236
108 4 0.724806 0.963577 0.650417
109 1 0.831927 0.96954 0.605983
110 3 0.887832 0.959741 0.631072
111 4 0.843648 0.99888 0.584737
112 1 0.85628 0.964417 0.68298
113 3 0.832175 0.9061 0.701236
114 4 0.843069 0.992357 0.705357
115 1 0.90198 0.8769 0.712254
116 3 0.883364 0.846608 0.757116
117 4 0.942302 0.864106 0.708283
118 1 0.872635 0.912848 0.783123
119 3 0.815572 0.89045 0.800141
120 4 0.883612 0.949131 0.79807
121 1 0.774781 0.918223 0.758269
122 3 0.743808 0.860494 0.769223
123 4 0.758371 0.939808 0.733393
124 1 0.790391 0.817016 0.732881
125 3 0.773953 0.766931 0.763457
126 4 0.820398 0.804502 0.711464
127 1 0.826521 0.779305 0.803536
128 3 0.787936 0.759288 0.843187
129 4 0.861382 0.78762 0.819401
130 1 0.748056 0.824435 0.841736
131 3 0.69535 0.784372 0.852091
132 4 0.744415 0.866878 0.841138
133 1 0.675492 0.779025 0.793735
134 3 0.660461 0.716117 0.809408
135 4 0.675713 0.785548 0.761215
136 1 0.728391 0.689073 0.803408
137 3 0.706051 0.646519 0.839323
138 4 0.768355 0.680646 0.794845
139 1 0.725936 0.691481 0.885081
140 3 0.674196 0.668552 0.91254
141 4 0.74538 0.721353 0.903359
142 1 0.623807 0.716537 0.883266
143 3 0.584147 0.662309 0.886704
144 4 0.609603 0.750189 0.866013
145 1 0.606597 0.632297 0.835287
146 3 0.591345 0.571825 0.854889
147 4 0.616967 0.631065 0.803643
148 1 0.661454 0.561718 0.88017
149 3 0.650201 0.533666 0.926547
150 4 0.703569 0.560598 0.876028
151 1 0.637404 0.598589 0.953708
152 3 0.666529 0.588174 0.999146
153 5 0.646506 0.607754 0.925168
154 1 0.737217 0.607576 0.980548
155 3 0.75975 0.643131 0.942391
156 4 0.755006 0.569529 0.984605
157 1 0.82528 0.664604 0.971281
158 3 0.868994 0.617375 0.959686
159 4 0.85195 0.677175 0.993936
160 1 0.863037 0.62135 0.906796
161 3 0.922721 0.610319 0.891038
162 4 0.842049 0.611271 0.879273
163 1 0.940234 0.682158 0.886811
164 3 0.977081 0.662421 0.847287
165 4 0.970434 0.667768 0.907416
166 1 0.92432 0.659229 0.806867
167 3 0.931463 0.605504 0.77518
168 5 0.918611 0.678317 0.747218
169 1 0.931408 0.554859 0.813742
170 3 0.896602 0.535177 0.852775
171 4 0.967538 0.542288 0.825807
172 1 0.86141 0.477141 0.823052
173 3 0.898836 0.427 0.802874
174 4 0.823377 0.484672 0.809451
175 1 0.861603 0.369887 0.832746
176 3 0.812124 0.371567 0.798305
177 4 0.853384 0.350626 0.862447
178 1 0.825611 0.298413 0.777593
179 3 0.761542 0.302584 0.765593
180 4 0.838546 0.258238 0.77313
181 1 0.742209 0.282763 0.823394
182 3 0.687297 0.315434 0.812504
183 4 0.747228 0.272124 0.854846
184 1 0.718269 0.387385 0.825038
185 3 0.681863 0.41233 0.788205
186 4 0.743229 0.418041 0.836867
187 1 0.728887 0.391416 0.745585
188 3 0.676485 0.381954 0.717486
189 4 0.762673 0.38033 0.728375
190 1 0.664902 0.310423 0.73555
191 3 0.599537 0.318626 0.733842
192 4 0.672265 0.269744 0.741571
193 1 0.595538 0.354293 0.785536
194 3 0.547796 0.387329 0.759721
195 4 0.600116 0.36734 0.815472
196 1 0.594655 0.442902 0.740845
197 3 0.552044 0.441614 0.701471
198 4 0.627724 0.468462 0.732646
199 1 0.585664 0.381814 0.674354
200 3 0.523278 0.372407 0.65883
201 4 0.614154 0.352082 0.665834
202 1 0.503117 0.328761 0.704162
203 3 0.443626 0.358381 0.691457
204 4 0.502041 0.30628 0.732539
205 1 0.456092 0.422212 0.718831
206 3 0.417922 0.452224 0.684838
207 4 0.471427 0.453624 0.737642
208 1 0.474985 0.461995 0.647172
209 3 0.436814 0.456844 0.605684
210 4 0.512328 0.475069 0.634809
211 1 0.438662 0.37879 0.604531
212 3 0.372773 0.385453 0.5933
213 4 0.454631 0.337523 0.60389
214 1 0.352915 0.37921 0.649884
215 3 0.30454 0.418909 0.6312
216 4 0.35275 0.371091 0.682617
217 1 0.33987 0.484532 0.640809
218 3 0.307353 0.505277 0.599278
219 4 0.367036 0.514908 0.649969
220 1 0.354046 0.475517 0.559349
221 3 0.296348 0.469106 0.534516
222 4 0.386287 0.456592 0.543655
223 1 0.280545 0.398135 0.553648
224 3 0.219345 0.423332 0.544509
225 4 0.280407 0.358129 0.566203
226 1 0.209857 0.453512 0.599769
227 3 0.17472 0.50203 0.576623
228 4 0.212946 0.458244 0.632118
229 1 0.233962 0.538761 0.558068
230 3 0.190303 0.551807 0.520637
231 5 0.235396 0.584322 0.539589
232 1 0.205169 0.488116 0.489377
233 3 0.140466 0.492539 0.477035
234 4 0.22191 0.451608 0.476865
235 1 0.118898 0.451748 0.522196
236 3 0.0610899 0.480389 0.521876
237 4 0.114844 0.418993 0.543164
238 1 0.0896629 0.552255 0.545449
239 3 0.0711016 0.609592 0.522794
240 4 0.110072 0.573448 0.568317
241 1 0.110514 0.598953 0.477014
242 3 0.0768658 0.556203 0.446822
243 4 0.149705 0.597609 0.465078
244 1 0.0301451 0.606232 0.426644
245 3 0.0243532 0.583555 0.378878
246 4 0.0011032 0.6363 0.427733
247 1 0.0903525 0.602956 0.360857
248 3 0.111534 0.544668 0.33959
249 4 0.118126 0.633108 0.352486
250 1 0.149843 0.523083 0.384814
251 3 0.138314 0.456508 0.379241
252 4 0.181394 0.529662 0.406316
253 1 0.0830713 0.458299 0.421412
254 3 0.0735562 0.398919 0.398288
255 4 0.0562358 0.468574 0.445263
256 1 0.0322687 0.427756 0.355177
257 3 0.0541674 0.379266 0.326458
258 4 0.0129902 0.45592 0.335469
259 1 0.120773 0.410174 0.314928
260 3 0.138066 0.344047 0.318045
261 4 0.152297 0.437526 0.30865
262 1 0.157041 0.351522 0.375334
263 3 0.14041 0.287354 0.369141
264 4 0.161785 0.368515 0.404928
265 1 0.0665508 0.295753 0.38048
266 3 0.0562634 0.243176 0.349881
267 4 0.0282145 0.312411 0.386779
268 1 0.0705224 0.275176 0.302714
269 3 0.102984 0.227498 0.277475
270 4 0.0665232 0.302416 0.277646
271 1 0.168211 0.235113 0.303995
272 3 0.16082 0.192643 0.342066
273 4 0.202962 0.258938 0.312365
274 1 0.207072 0.136818 0.316721
275 3 0.247063 0.174221 0.347212
276 4 0.222351 0.111285 0.294536
277 1 0.271223 0.118732 0.379711
278 3 0.32346 0.156079 0.39075
279 4 0.272492 0.0867045 0.400615
280 1 0.361879 0.137378 0.3407
281 3 0.381902 0.201825 0.346871
282 4 0.379889 0.111761 0.318152
283 1 0.331844 0.22957 0.306792
284 3 0.337001 0.284694 0.334636
285 4 0.305808 0.234329 0.281917
286 1 0.294583 0.260562 0.37954
287 3 0.334188 0.304992 0.402814
288 4 0.268244 0.2427 0.400957
289 1 0.39332 0.251295 0.408814
290 3 0.429698 0.308407 0.406359
291 4 0.416074 0.215348 0.409028
292 1 0.423189 0.313671 0.346465
293 3 0.428319 0.379546 0.354451
294 4 0.419714 0.30516 0.314842
295 1 0.356418 0.391304 0.367006
296 3 0.375062 0.435203 0.402707
297 4 0.313503 0.387581 0.367156
298 1 0.38397 0.384893 0.44475
299 3 0.433973 0.42714 0.458267
300 4 0.382178 0.351634 0.465462
301 1 0.4853 0.394916 0.420387
302 3 0.504882 0.458216 0.425042
303 4 0.504964 0.369271 0.399547
304 1 0.463208 0.482936 0.379391
305 3 0.469248 0.540805 0.405526
306 4 0.436069 0.486996 0.354515
307 1 0.409537 0.526415 0.439391
308 3 0.437779 0.560738 0.479043
309 4 0.371035 0.51334 0.448701
310 1 0.481907 0.501778 0.494779
311 3 0.520713 0.552703 0.50505
312 4 0.499586 0.462947 0.496893
313 1 0.555105 0.553795 0.449021
314 3 0.564317 0.62093 0.447078
315 4 0.566027 0.539293 0.418722
316 1 0.502151 0.637308 0.426003
317 3 0.451376 0.679974 0.426772
318 4 0.507336 0.639044 0.393078
319 1 0.419383 0.651334 0.47522
320 3 0.386618 0.644615 0.43006
321 5 0.453941 0.669103 0.484917
322 1 0.314717 0.641955 0.457818
323 3 0.297259 0.660517 0.409049
324 4 0.286833 0.65391 0.481092
325 1 0.307739 0.735351 0.42517
326 3 0.312372 0.731179 0.374202
327 4 0.320867 0.770038 0.441057
328 1 0.387087 0.716901 0.375248
329 3 0.353825 0.703603 0.33075
330 5 0.365161 0.725151 0.356543
331 1 0.348227 0.625325 0.345483
332 3 0.305202 0.627145 0.308906
333 4 0.345165 0.590498 0.361946
334 1 0.251972 0.663484 0.343668
335 3 0.227977 0.686917 0.299212
336 4 0.225247 0.675299 0.367348
337 1 0.293728 0.731012 0.284052
338 3 0.309283 0.720541 0.230799
339 5 0.286944 0.764639 0.274592
340 1 0.311904 0.65223 0.23445
341 3 0.263859 0.609871 0.218692
342 4 0.334961 0.619642 0.245447
343 1 0.213194 0.66326 0.21077
344 3 0.184097 0.612671 0.188649
345 4 0.194054 0.699208 0.201439
346 1 0.223482 0.621238 0.136848
347 3 0.218683 0.554159 0.128115
348 4 0.239809 0.641199 0.109602
349 1 0.282338 0.538481 0.161852
350 3 0.250483 0.484672 0.176649
351 4 0.318468 0.540161 0.178699
352 1 0.213194 0.519639 0.221254
353 3 0.168184 0.473473 0.209147
354 4 0.200121 0.544892 0.246322
355 1 0.136659 0.514768 0.166741
356 3 0.121877 0.454856 0.147652
357 4 0.123366 0.547748 0.149083
358 1 0.190303 0.447437 0.120172
359 3 0.184677 0.380806 0.130698
360 4 0.225302 0.4562 0.10247
361 1 0.212781 0.383633 0.181539
362 3 0.166281 0.335116 0.184571
363 4 0.232721 0.394216 0.209446
364 1 0.112637 0.383745 0.201994
365 3 0.0717911 0.338195 0.181368
366 4 0.0901594 0.417929 0.210023
367 1 0.0872083 0.357065 0.128051
368 3 0.0968338 0.307903 0.0974313
369 4 0.0837056 0.382933 0.102577
370 1 0.160406 0.278535 0.126983
371 3 0.18862 0.251855 0.0868191
372 4 0.14372 0.239508 0.131019
373 1 0.212643 0.321901 0.0663208
374 3 0.269789 0.356505 0.0759721
375 4 0.198963 0.356421 0.0520787
376 1 0.304705 0.28699 0.0908334
377 3 0.358349 0.324477 0.0895736
378 4 0.313834 0.248691 0.103325
379 1 0.369077 0.313167 0.0304059
380 3 0.39332 0.374982 0.031196
381 4 0.370567 0.293737 0.000854099
382 1 0.327652 0.408802 0.0198578
383 3 0.351978 0.459279 0.0471676
384 4 0.288323 0.418797 0.00958726
385 1 0.332065 0.431115 0.0962569
386 3 0.38717 0.456872 0.117289
387 4 0.311269 0.415017 0.120876
388 1 0.435545 0.401187 0.0993317
389 3 0.476529 0.453036 0.095595
390 4 0.449804 0.363364 0.089296
391 1 0.456148 0.46793 0.0384771
392 3 0.471151 0.529578 0.0534239
393 4 0.442137 0.465523 0.00807124
394 1 0.402808 0.549203 0.0741358
395 3 0.434414 0.586887 0.109197
396 4 0.361272 0.549959 0.0829543
397 1 0.446136 0.533302 0.147076
398 3 0.500083 0.563958 0.163688
399 4 0.448673 0.494779 0.162941
400 1 0.542253 0.546236 0.11336
401 3 0.581141 0.598113 0.106463
402 4 0.558635 0.51796 0.0927338
403 1 0.520244 0.645679 0.0908761
404 3 0.485079 0.684118 0.122264
405 4 0.488251 0.653798 0.0721713
406 1 0.536875 0.683474 0.163688
407 3 0.602074 0.672807 0.170969
408 4 0.517789 0.656653 0.18346
409 1 0.609631 0.733111 0.207098
410 3 0.655883 0.691089 0.225589
411 4 0.603122 0.766287 0.227297
412 1 0.603646 0.646659 0.256251
413 3 0.655745 0.606092 0.253753
414 4 0.566137 0.626025 0.262272
415 1 0.637515 0.583163 0.196485
416 3 0.70241 0.580027 0.191959
417 4 0.61796 0.580251 0.1683
418 1 0.712091 0.653126 0.172592
419 3 0.773429 0.649262 0.194286
420 4 0.703707 0.691229 0.158457
421 1 0.748 0.666704 0.248201
422 3 0.794087 0.629469 0.270429
423 4 0.730156 0.690809 0.271902
424 1 0.751558 0.565273 0.272714
425 3 0.714546 0.515188 0.262037
426 4 0.734459 0.557882 0.302436
427 1 0.747311 0.506621 0.205133
428 3 0.723813 0.444889 0.20366
429 4 0.774395 0.51348 0.180492
430 1 0.778477 0.410594 0.235027
431 3 0.729632 0.369691 0.250785
432 4 0.816785 0.403567 0.248158
433 1 0.708285 0.412358 0.294557
434 3 0.646919 0.392172 0.280358
435 4 0.707182 0.435762 0.321675
436 1 0.632881 0.455444 0.247155
437 3 0.597054 0.406814 0.226293
438 4 0.629682 0.494639 0.234108
439 1 0.652325 0.378734 0.192194
440 3 0.61774 0.323609 0.195674
441 4 0.688813 0.369243 0.178848
442 1 0.641679 0.303648 0.248094
443 3 0.581885 0.278395 0.252728
444 4 0.662943 0.295949 0.275767
445 1 0.549672 0.342927 0.273247
446 3 0.495284 0.321314 0.248094
447 4 0.544487 0.378258 0.290821
448 1 0.51812 0.357261 0.199133
449 3 0.479784 0.309415 0.179702
450 4 0.533924 0.383101 0.176179
451 1 0.538557 0.25485 0.179788
452 3 0.493546 0.208992 0.185724
453 4 0.576562 0.236177 0.183482
454 1 0.485272 0.225342 0.24361
455 3 0.421507 0.210448 0.232571
456 4 0.494953 0.235533 0.274465
457 1 0.402035 0.279599 0.215083
458 3 0.361355 0.251631 0.182115
459 4 0.396188 0.322853 0.211475
460 1 0.414557 0.246927 0.137894
461 3 0.380881 0.19421 0.12173
462 4 0.447929 0.252975 0.118784
463 1 0.425175 0.141381 0.154101
464 3 0.393044 0.0936196 0.178378
465 4 0.463842 0.123912 0.155361
466 1 0.381075 0.127159 0.224521
467 3 0.388411 0.0731263 0.254842
468 5 0.400574 0.166469 0.239319
469 1 0.462657 0.0645035 0.246536
470 3 0.496746 0.119152 0.259454
471 4 0.48199 0.0428623 0.223155
472 1 0.544763 0.0804614 0.295625
473 3 0.610321 0.075254 0.291931
474 4 0.550334 0.0593241 0.323554
475 1 0.613134 0.0629637 0.235133
476 3 0.676568 0.0781937 0.24124
477 4 0.605135 0.0622078 0.203617
478 1 0.66424 0.157507 0.24124
479 3 0.714794 0.172821 0.272799
480 4 0.643058 0.194462 0.238251
481 1 0.686855 0.135194 0.316508
482 3 0.718766 0.0920518 0.345675
483 4 0.657069 0.140317 0.340166
484 1 0.713939 0.0330356 0.307198
485 3 0.77456 0.00767097 0.318515
486 4 0.687683 0.00111985 0.301369
487 1 0.801754 0.0645875 0.280571
488 3 0.853853 0.0568605 0.314159
489 4 0.793811 0.104006 0.268294
490 1 0.826135 0.122848 0.348323
491 3 0.84249 0.125311 0.398715
492 4 0.804871 0.159523 0.348472
ITEM: TIMESTEP
1000
ITEM: NUMBER OF ATOMS
492
ITEM: BOX BOUNDS ss ss ss
16.556 52.814
-24.562 11.157
-11.831 35.002
ITEM: ATOMS id type xs ys zs
1 1 0.569627 0.03417 0.451359
2 3 0.506342 0.0484742 0.462114
3 4 0.572185 0.0429474 0.419802
4 1 0.515399 0.0979401 0.498929
5 3 0.553039 0.151253 0.49324
6 4 0.506409 0.0865611 0.527966
7 1 0.507564 0.201503 0.503671
8 3 0.555864 0.243377 0.517796
9 4 0.473273 0.223322 0.513971
10 1 0.583166 0.207099 0.558142
11 3 0.64799 0.214783 0.544236
12 4 0.582538 0.189213 0.587595
13 1 0.655476 0.158109 0.513925
14 3 0.680009 0.183254 0.47079
15 4 0.651639 0.116122 0.506983
16 1 0.623575 0.212529 0.450126
17 3 0.652668 0.272739 0.43983
18 4 0.583074 0.211594 0.441033
19 1 0.637111 0.303803 0.485461
20 3 0.700807 0.323016 0.491496
21 4 0.61244 0.318464 0.511433
22 1 0.729174 0.26979 0.518003
23 3 0.782592 0.276032 0.489692
24 4 0.737451 0.238128 0.537273
25 1 0.760545 0.255339 0.442324
26 3 0.779117 0.302271 0.408635
27 4 0.744935 0.225193 0.424521
28 1 0.729769 0.352229 0.419031
29 3 0.760253 0.41076 0.424262
30 4 0.687331 0.358434 0.411048
31 1 0.761733 0.413328 0.477809
32 3 0.822943 0.429674 0.493517
33 4 0.733947 0.415399 0.503461
34 1 0.845868 0.364953 0.507686
35 3 0.817842 0.377283 0.553534
36 5 0.82007 0.400246 0.513349
37 1 0.872337 0.369438 0.586352
38 3 0.934756 0.390479 0.585973
39 4 0.875558 0.332662 0.601589
40 1 0.93148 0.4469 0.617689
41 3 0.90388 0.466479 0.66004
42 4 0.929183 0.483269 0.598835
43 1 0.95524 0.455416 0.696463
44 3 0.965251 0.509516 0.724647
45 4 0.979157 0.425601 0.710779
46 1 0.993701 0.552882 0.687954
47 3 0.956184 0.576108 0.651427
48 4 1.03565 0.558492 0.682719
49 1 0.940218 0.64143 0.669291
50 3 0.982397 0.661145 0.633131
51 4 0.934246 0.676776 0.687214
52 1 0.944441 0.653439 0.588437
53 3 0.883243 0.671814 0.575421
54 4 0.952587 0.615467 0.575943
55 1 0.896932 0.711085 0.532198
56 3 0.892096 0.660891 0.498541
57 4 0.915495 0.744773 0.519719
58 1 0.825452 0.667701 0.484838
59 3 0.829797 0.715536 0.450555
60 4 0.784469 0.661938 0.493001
61 1 0.825561 0.677656 0.404644
62 3 0.817084 0.736935 0.382603
63 4 0.802622 0.654981 0.383969
64 1 0.77311 0.768865 0.413491
65 3 0.797491 0.828575 0.426318
66 4 0.733185 0.770755 0.427638
67 1 0.839141 0.807181 0.467772
68 3 0.817851 0.84225 0.507093
69 5 0.87098 0.79822 0.491554
70 1 0.790476 0.79457 0.537938
71 3 0.823181 0.740232 0.553966
72 4 0.748363 0.7844 0.534118
73 1 0.821978 0.749035 0.60624
74 3 0.76613 0.71034 0.614228
75 4 0.826185 0.774227 0.634047
76 1 0.798467 0.648429 0.615602
77 3 0.851369 0.621255 0.640229
78 4 0.79207 0.63314 0.586253
79 1 0.825127 0.562492 0.658529
80 3 0.780314 0.519192 0.672829
81 4 0.832384 0.579174 0.688469
82 1 0.813302 0.461428 0.658846
83 3 0.81246 0.429056 0.614959
84 5 0.788279 0.490232 0.641654
85 1 0.74895 0.422679 0.600776
86 3 0.701496 0.443833 0.566847
87 4 0.72663 0.38959 0.612262
88 1 0.71627 0.512409 0.567943
89 3 0.660525 0.544651 0.580081
90 5 0.702827 0.519063 0.537222
91 1 0.677111 0.56102 0.629483
92 3 0.712139 0.618083 0.638996
93 4 0.683637 0.543724 0.659258
94 1 0.672894 0.663662 0.611327
95 3 0.642142 0.682441 0.65175
96 4 0.646646 0.681538 0.588892
97 1 0.694753 0.720557 0.674297
98 3 0.661167 0.778473 0.685912
99 4 0.73178 0.718127 0.689977
100 1 0.682224 0.819898 0.64743
101 3 0.725074 0.837946 0.61275
102 4 0.690136 0.846938 0.671968
103 1 0.691191 0.879191 0.580892
104 3 0.731304 0.932665 0.576157
105 4 0.654724 0.89236 0.564808
106 1 0.733703 0.953077 0.626554
107 3 0.79076 0.923801 0.635219
108 4 0.719357 0.965953 0.655486
109 1 0.833891 0.973404 0.61748
110 3 0.883217 0.962296 0.649997
111 4 0.847787 1.00714 0.600778
112 1 0.850703 0.972455 0.696337
113 3 0.833062 0.914935 0.715431
114 4 0.828046 0.998495 0.715042
115 1 0.894042 0.886982 0.725861
116 3 0.866804 0.859651 0.769423
117 4 0.935682 0.878239 0.727497
118 1 0.858682 0.921684 0.796597
119 3 0.798213 0.910268 0.81196
120 4 0.869509 0.9581 0.811594
121 1 0.760298 0.920727 0.768043
122 3 0.732615 0.860546 0.765203
123 4 0.751137 0.944531 0.742522
124 1 0.784209 0.823844 0.744563
125 3 0.770945 0.773657 0.775688
126 4 0.816114 0.814066 0.725213
127 1 0.813117 0.786288 0.817375
128 3 0.767227 0.775186 0.854792
129 4 0.847713 0.79579 0.832149
130 1 0.728526 0.831981 0.851016
131 3 0.669219 0.802479 0.849962
132 4 0.724273 0.873863 0.850036
133 1 0.667309 0.782416 0.798309
134 3 0.652251 0.717892 0.804409
135 4 0.667065 0.788804 0.766295
136 1 0.71601 0.692634 0.812357
137 3 0.706381 0.652033 0.853818
138 4 0.756354 0.688653 0.802932
139 1 0.70708 0.697713 0.892902
140 3 0.648009 0.678601 0.912594
141 4 0.730213 0.723395 0.91032
142 1 0.605749 0.718696 0.884083
143 3 0.56208 0.668676 0.876562
144 4 0.591268 0.755219 0.868596
145 1 0.593479 0.635469 0.836252
146 3 0.587927 0.571754 0.855781
147 4 0.604893 0.635487 0.806223
148 1 0.647634 0.566607 0.882152
149 3 0.628742 0.543212 0.927873
150 4 0.68799 0.565277 0.879943
151 1 0.617228 0.601819 0.955874
152 3 0.646679 0.589879 1.00178
153 5 0.643418 0.568817 0.958355
154 1 0.711251 0.613437 0.989714
155 3 0.747916 0.641623 0.95233
156 4 0.726691 0.572049 0.992035
157 1 0.798228 0.669967 0.982538
158 3 0.844495 0.623132 0.972607
159 4 0.817572 0.682428 1.00909
160 1 0.846594 0.629642 0.918294
161 3 0.906887 0.627696 0.900437
162 4 0.827031 0.615982 0.890252
163 1 0.920003 0.69717 0.901774
164 3 0.955362 0.705031 0.858534
165 4 0.953815 0.680082 0.921793
166 1 0.913866 0.669096 0.826999
167 3 0.919042 0.621002 0.795137
168 5 0.924636 0.669475 0.795274
169 1 0.919736 0.56604 0.830146
170 3 0.867416 0.546367 0.858579
171 4 0.955661 0.553188 0.845335
172 1 0.853581 0.48682 0.833835
173 3 0.8862 0.43293 0.812957
174 4 0.816743 0.494837 0.816675
175 1 0.855458 0.381646 0.838141
176 3 0.803272 0.372835 0.807241
177 4 0.84693 0.364442 0.869817
178 1 0.825804 0.311956 0.784019
179 3 0.763815 0.295649 0.775724
180 4 0.843166 0.274884 0.777573
181 1 0.740224 0.291522 0.826894
182 3 0.684442 0.328769 0.827333
183 4 0.741962 0.277602 0.859547
184 1 0.712423 0.39494 0.829072
185 3 0.685174 0.422611 0.787002
186 4 0.733666 0.423939 0.845738
187 1 0.724787 0.403452 0.747202
188 3 0.671748 0.38847 0.716799
189 4 0.760215 0.393937 0.732579
190 1 0.664127 0.320166 0.735326
191 3 0.600837 0.319531 0.740963
192 4 0.67684 0.280749 0.741943
193 1 0.59266 0.35864 0.785645
194 3 0.548199 0.397931 0.760822
195 4 0.596821 0.367804 0.815947
196 1 0.590986 0.446833 0.741877
197 3 0.558601 0.446688 0.69551
198 4 0.621972 0.475593 0.738152
199 1 0.585262 0.386544 0.675716
200 3 0.525602 0.367355 0.659198
201 4 0.616365 0.359514 0.664344
202 1 0.502235 0.330993 0.70235
203 3 0.441484 0.357675 0.697041
204 4 0.505019 0.305159 0.729422
205 1 0.453205 0.421587 0.717753
206 3 0.4175 0.455324 0.680891
207 4 0.469733 0.454625 0.73743
208 1 0.47032 0.462038 0.644869
209 3 0.435519 0.448741 0.602432
210 4 0.510395 0.473128 0.636363
211 1 0.436872 0.379346 0.601945
212 3 0.369616 0.371038 0.597936
213 4 0.457552 0.341388 0.601231
214 1 0.353062 0.381564 0.648069
215 3 0.30041 0.425225 0.640822
216 4 0.351696 0.371526 0.681846
217 1 0.33847 0.483617 0.637568
218 3 0.310033 0.508196 0.594557
219 4 0.365785 0.514097 0.648639
220 1 0.348571 0.474728 0.559353
221 3 0.299413 0.458754 0.528492
222 4 0.383942 0.463526 0.544244
223 1 0.27596 0.400806 0.552679
224 3 0.212208 0.411661 0.555152
225 4 0.281711 0.359012 0.561806
226 1 0.207215 0.452974 0.597147
227 3 0.177265 0.510946 0.578923
228 4 0.210789 0.456197 0.630286
229 1 0.232392 0.539196 0.555646
230 3 0.198624 0.553045 0.512433
231 5 0.241753 0.522329 0.526481
232 1 0.203604 0.491682 0.488279
233 3 0.138847 0.48644 0.477051
234 4 0.223367 0.456248 0.475323
235 1 0.113289 0.453199 0.519352
236 3 0.058938 0.48807 0.532079
237 4 0.113185 0.422769 0.541822
238 1 0.086086 0.550126 0.544672
239 3 0.0597364 0.599373 0.517205
240 4 0.10439 0.570422 0.570229
241 1 0.106825 0.601852 0.477039
242 3 0.0736221 0.560673 0.444565
243 4 0.145703 0.601291 0.46654
244 1 0.0259278 0.608679 0.427407
245 3 0.0251296 0.580185 0.380988
246 4 -0.00102025 0.640696 0.42602
247 1 0.0860996 0.608825 0.3633
248 3 0.110485 0.55224 0.342934
249 4 0.112648 0.64218 0.355378
250 1 0.146533 0.528919 0.38471
251 3 0.141978 0.461574 0.395248
252 4 0.181459 0.537099 0.402787
253 1 0.0817237 0.462685 0.41972
254 3 0.066688 0.406767 0.393947
255 4 0.0529221 0.47329 0.441755
256 1 0.0317222 0.433847 0.353224
257 3 0.0576574 0.39002 0.317784
258 4 0.00929827 0.462891 0.335278
259 1 0.119531 0.417773 0.312712
260 3 0.152744 0.360502 0.319699
261 4 0.149813 0.446423 0.306766
262 1 0.155931 0.357598 0.372021
263 3 0.135219 0.293442 0.376634
264 4 0.160683 0.375155 0.402091
265 1 0.0658726 0.302798 0.376007
266 3 0.0512235 0.253365 0.342166
267 4 0.0295144 0.319328 0.385962
268 1 0.0726755 0.282368 0.296721
269 3 0.113194 0.24466 0.268893
270 4 0.0672458 0.312537 0.274057
271 1 0.169112 0.240208 0.300898
272 3 0.161211 0.187079 0.331855
273 4 0.200683 0.265468 0.31069
274 1 0.209025 0.144868 0.311772
275 3 0.257235 0.178815 0.336377
276 4 0.223403 0.122127 0.285456
277 1 0.274641 0.128621 0.372122
278 3 0.334836 0.150755 0.38171
279 4 0.275432 0.0938648 0.3909
280 1 0.364481 0.147593 0.333949
281 3 0.381114 0.211289 0.334875
282 4 0.380085 0.121123 0.313325
283 1 0.331509 0.238926 0.303578
284 3 0.324847 0.295933 0.330953
285 4 0.30432 0.242239 0.279567
286 1 0.297694 0.27037 0.375465
287 3 0.338651 0.305352 0.406332
288 4 0.26852 0.24867 0.3935
289 1 0.393908 0.262567 0.404086
290 3 0.438156 0.311717 0.396451
291 4 0.41697 0.226163 0.407549
292 1 0.424005 0.324443 0.343436
293 3 0.422463 0.390304 0.349679
294 4 0.417825 0.313247 0.311646
295 1 0.355457 0.399821 0.363265
296 3 0.363949 0.441304 0.403968
297 4 0.313864 0.395548 0.362529
298 1 0.387111 0.392605 0.439109
299 3 0.443539 0.425814 0.455332
300 4 0.381171 0.360025 0.458823
301 1 0.486083 0.401624 0.416095
302 3 0.510534 0.464571 0.412047
303 4 0.507198 0.375772 0.395313
304 1 0.464011 0.493519 0.377237
305 3 0.466003 0.549184 0.404975
306 4 0.436411 0.494032 0.35165
307 1 0.409792 0.534238 0.435747
308 3 0.442043 0.564612 0.475195
309 4 0.372675 0.520133 0.447697
310 1 0.483824 0.509052 0.48737
311 3 0.53994 0.543612 0.49546
312 4 0.495302 0.46948 0.494709
313 1 0.552512 0.564072 0.445821
314 3 0.556964 0.629582 0.451829
315 4 0.566505 0.550191 0.417211
316 1 0.498736 0.649277 0.423857
317 3 0.457223 0.69263 0.437481
318 4 0.493638 0.65363 0.390829
319 1 0.417589 0.656861 0.47179
320 3 0.374673 0.624097 0.441395
321 5 0.448899 0.629185 0.478816
322 1 0.314277 0.647871 0.456233
323 3 0.290558 0.678662 0.412775
324 4 0.287053 0.657699 0.48101
325 1 0.310787 0.743852 0.421518
326 3 0.33758 0.769425 0.376968
327 4 0.31958 0.777148 0.439464
328 1 0.388884 0.72564 0.371231
329 3 0.366604 0.698276 0.32479
330 5 0.401905 0.692932 0.355507
331 1 0.346867 0.634944 0.343027
332 3 0.295364 0.635609 0.31107
333 4 0.345788 0.597003 0.359877
334 1 0.251882 0.672983 0.340833
335 3 0.223672 0.712516 0.303081
336 4 0.226607 0.687155 0.364663
337 1 0.285118 0.7352 0.284314
338 3 0.271446 0.71847 0.235583
339 5 0.312271 0.705126 0.269711
340 1 0.307093 0.65659 0.232835
341 3 0.253302 0.621157 0.224131
342 4 0.328632 0.621734 0.244396
343 1 0.209709 0.669963 0.206412
344 3 0.175818 0.623121 0.177262
345 4 0.187299 0.705136 0.202902
346 1 0.219189 0.622819 0.134859
347 3 0.225367 0.556299 0.127942
348 4 0.236099 0.643888 0.108467
349 1 0.273608 0.540254 0.163485
350 3 0.241818 0.488437 0.186549
351 4 0.311543 0.5455 0.177257
352 1 0.205722 0.525227 0.221734
353 3 0.153867 0.487873 0.211924
354 4 0.197493 0.553582 0.245178
355 1 0.128741 0.519611 0.168967
356 3 0.116135 0.468462 0.13657
357 4 0.115544 0.552902 0.151701
358 1 0.180438 0.449321 0.124742
359 3 0.182356 0.382093 0.136578
360 4 0.215237 0.459757 0.10856
361 1 0.204267 0.388223 0.186893
362 3 0.156194 0.349164 0.207138
363 4 0.226362 0.39902 0.213146
364 1 0.101104 0.390725 0.206861
365 3 0.0570763 0.349937 0.183419
366 4 0.0835534 0.42706 0.216449
367 1 0.0797183 0.357595 0.132997
368 3 0.0865455 0.295019 0.116314
369 4 0.0773293 0.383353 0.107086
370 1 0.148647 0.281582 0.132165
371 3 0.195253 0.265205 0.0987227
372 4 0.126751 0.247116 0.132704
373 1 0.202228 0.322454 0.0701323
374 3 0.256264 0.346263 0.0948088
375 4 0.188369 0.357805 0.0559386
376 1 0.29294 0.288633 0.0958161
377 3 0.353307 0.317984 0.0888433
378 4 0.300055 0.247817 0.104525
379 1 0.356464 0.307676 0.0343102
380 3 0.381851 0.371146 0.0273688
381 4 0.359978 0.290152 0.00458973
382 1 0.31957 0.40713 0.0269754
383 3 0.341555 0.458948 0.0589715
384 4 0.281841 0.417846 0.0157314
385 1 0.327671 0.424235 0.10442
386 3 0.386031 0.443029 0.129061
387 4 0.310402 0.400218 0.129754
388 1 0.42794 0.399056 0.102876
389 3 0.472913 0.450952 0.09351
390 4 0.441713 0.361162 0.0898293
391 1 0.448511 0.469234 0.045747
392 3 0.457162 0.535554 0.0553641
393 4 0.433832 0.464906 0.0144269
394 1 0.399268 0.54609 0.0821053
395 3 0.428414 0.582851 0.12
396 4 0.356858 0.548252 0.0878859
397 1 0.444418 0.527303 0.15259
398 3 0.50508 0.555366 0.163363
399 4 0.443278 0.489823 0.168834
400 1 0.53912 0.536989 0.119556
401 3 0.571948 0.596073 0.106574
402 4 0.554536 0.511414 0.0985921
403 1 0.515156 0.638561 0.100561
404 3 0.4813 0.667095 0.139272
405 4 0.485265 0.646692 0.0791056
406 1 0.533766 0.67459 0.174068
407 3 0.597517 0.67445 0.181978
408 4 0.5154 0.644753 0.194886
409 1 0.607295 0.719636 0.220526
410 3 0.643739 0.675808 0.248846
411 4 0.600755 0.751573 0.239408
412 1 0.59955 0.629223 0.264837
413 3 0.641805 0.577769 0.25655
414 4 0.562437 0.611134 0.272737
415 1 0.637369 0.576069 0.202994
416 3 0.700485 0.57584 0.184706
417 4 0.615009 0.571596 0.174898
418 1 0.710358 0.646271 0.182543
419 3 0.767133 0.656539 0.208494
420 4 0.699606 0.683032 0.169379