LAMMPS protain data file

         555  atoms
         738  bonds
           0  angles
           0  dihedrals
           0  impropers

           5  atom types
           5  bond types
           0  angle types
           0  dihedral types
           0  improper types

-200.0	200.0	xlo xhi
-200.0	200.0	ylo yhi
-200.0	200.0	zlo zhi

Masses

           1	27.0
           2	14.0
           3	28.0
           4	60.0
           5	60.0

Atoms

           1	1	1	1	0.0	33.60499954	43.00799942	21.6590004
           2	1	1	3	0.0	35.54700089	41.64500046	22.02799988
           3	1	1	4	0.0	32.41199875	42.53900146	22.48500061
           4	1	2	1	0.0	36.47100067	43.16799927	24.125
           5	1	2	3	0.0	34.99700165	42.29600143	25.81500053
           6	1	2	4	0.0	37.02799988	44.43399811	24.77300072
           7	1	3	1	0.0	36.72499847	40.23300171	26.47699928
           8	1	3	3	0.0	38.24200058	41.68899918	27.6079998
           9	1	3	4	0.0	37.4640007	38.93299866	26.14100075
          10	1	4	1	0.0	37.26399994	41.18799973	30.10899925
          11	1	4	3	0.0	37.68899918	40.4640007	32.33599854
          12	1	4	4	0.0	36.29000092	42.24700165	30.64299965
          13	1	5	1	0.0	37.66899872	37.81399918	31.72900009
          14	1	5	3	0.0	38.52799988	36.38199997	29.99699974
          15	1	5	4	0.0	36.31600189	37.20299911	32.13399887
          16	1	6	1	0.0	40.50099945	35.27000046	31.67700005
          17	1	6	3	0.0	40.39099884	34.3030014	33.88399887
          18	1	6	4	0.0	41.92499924	35.83399963	31.75600052
          19	1	7	1	0.0	39.66400146	31.76300049	32.89500046
          20	1	7	3	0.0	41.20999908	30.44799995	31.62000084
          21	1	7	4	0.0	38.38600159	31.09499931	32.36600113
          22	1	8	1	0.0	42.61399841	29.54899979	33.7879982
          23	1	8	3	0.0	43.21699905	29.04800034	36.05099869
          24	1	8	4	0.0	43.91699982	30.36300087	33.70399857
          25	1	9	1	0.0	41.74700165	26.70999908	36.12400055
          26	1	9	3	0.0	41.99100113	24.78800011	34.72100067
          27	1	9	4	0.0	40.27700043	26.62400055	36.57099915
          28	1	10	1	0.0	43.45800018	23.35899925	36.60400009
          29	1	10	3	0.0	43.43799973	23.36599922	38.99000168
          30	1	10	4	0.0	44.93600082	23.3029995	36.15100098
          31	1	11	1	0.0	43.06800079	20.66900063	39.24700165
          32	1	11	3	0.0	44.67599869	19.59000015	40.67699814
          33	1	11	4	0.0	42.1590004	19.43199921	39.18799973
          34	1	12	1	0.0	46.88000107	20.53700066	39.28900146
          35	1	12	3	0.0	48.83300018	19.28800011	38.69499969
          36	1	12	5	0.0	45.48799896	19.7137289	37.55063076
          37	1	13	1	0.0	47.48300171	17.43400002	37.21900177
          38	1	13	3	0.0	47.62400055	18.51399994	35.07600021
          39	1	13	5	0.0	46.86000061	15.06736185	35.02895717
          40	1	14	1	0.0	50.06600189	17.35899925	34.46300125
          41	1	14	3	0.0	50.58000183	19.63599968	35.02399826
          42	1	14	5	0.0	49.33300018	15.54508355	31.30208465
          43	1	15	1	0.0	51.13700104	20.31100082	32.36600113
          44	1	15	3	0.0	49.43099976	20.45100021	30.70899963
          45	1	15	4	0.0	52.35800171	20.13999939	31.38899994
          46	1	16	1	0.0	48.81499863	23.12400055	31.29000092
          47	1	16	3	0.0	49.73400116	25.21500015	32.03099823
          48	1	16	4	0.0	47.51300049	23.33499908	32.10699844
          49	1	17	1	0.0	50.69800186	25.94000053	29.56399918
          50	1	17	3	0.0	49.46900177	26.70899963	27.64999962
          51	1	17	4	0.0	51.91600037	25.67399979	28.66600037
          52	1	18	1	0.0	48.02600098	28.6079998	29.10700035
          53	1	18	3	0.0	49.21300125	30.54999924	29.83699989
          54	1	18	4	0.0	46.83100128	28.66399956	30.05699921
          55	1	19	1	0.0	48.94499969	31.87599945	27.41699982
          56	1	19	3	0.0	46.90299988	32.625	26.40099907
          57	1	19	4	0.0	49.80099869	31.86599922	26.13599968
          58	1	20	1	0.0	46.84600067	35.01200104	27.87199974
          59	1	20	3	0.0	48.2840004	36.77999878	27.10499954
          60	1	20	4	0.0	46.73899841	35.68099976	29.25
          61	1	21	1	0.0	47.44300079	36.65299988	24.48200035
          62	1	21	3	0.0	46.04700089	38.43999863	25.22200012
          63	1	21	5	0.0	46.94800186	34.25718653	21.97392761
          64	1	22	1	0.0	46.56499863	40.07300186	23.06500053
          65	1	22	3	0.0	44.64199829	39.00899887	22.07500076
          66	1	22	4	0.0	47.32600021	40.85599899	21.97599983
          67	1	23	1	0.0	42.92100143	41.0530014	22.79899979
          68	1	23	3	0.0	42.35400009	39.42499924	24.45800018
          69	1	23	5	0.0	44.3370018	39.24801345	20.75233291
          70	1	24	1	0.0	40.67699814	38.01499939	22.81200027
          71	1	24	3	0.0	40.74000168	35.65599823	22.46800041
          72	1	24	5	0.0	41.41799927	35.28001023	21.93771579
          73	1	25	1	0.0	43.40299988	35.56100082	21.83099937
          74	1	25	3	0.0	44.51300049	35.47200012	23.96500015
          75	1	25	4	0.0	44.50500107	35.90200043	20.80699921
          76	1	26	1	0.0	44.70100021	32.73300171	24.00499916
          77	1	26	3	0.0	44.65100098	31.04999924	22.29100037
          78	1	26	4	0.0	43.79700089	32.48300171	25.22900009
          79	1	27	1	0.0	46.52500153	29.45100021	23.52499962
          80	1	27	3	0.0	46.99100113	29.02199936	25.82799911
          81	1	27	4	0.0	47.7519989	29.56800079	22.6079998
          82	1	28	1	0.0	46.99599838	26.28300095	25.52300072
          83	1	28	3	0.0	47.41400146	24.65999985	23.81900024
          84	1	28	4	0.0	45.68899918	25.68000031	26.13500023
          85	1	29	1	0.0	49.47700119	23.41200066	25.28000069
          86	1	29	3	0.0	49.61600113	23.07900047	27.62999916
          87	1	29	4	0.0	50.97000122	23.68000031	25.06399918
          88	1	30	1	0.0	48.5929985	20.5720005	27.61599922
          89	1	30	3	0.0	49.13800049	18.63400078	26.31500053
          90	1	30	4	0.0	47.12099838	20.59600067	28.06800079
          91	1	31	1	0.0	50.09000015	17.22500038	28.47900009
          92	1	31	3	0.0	50.0379982	16.91200066	30.85199928
          93	1	31	4	0.0	51.60900116	17.35099983	28.29700089
          94	1	32	1	0.0	48.92100143	14.29399967	30.65999985
          95	1	32	3	0.0	48.77500153	14.89999962	32.98500061
          96	1	32	4	0.0	50.20899963	13.59700012	31.08699989
          97	1	33	1	0.0	46.50600052	16.41200066	32.61100006
          98	1	33	3	0.0	45.19300079	14.49699974	33.25500107
          99	1	33	4	0.0	45.74000168	17.58799934	31.93899918
         100	1	34	1	0.0	43.79600143	15.99699974	35.18199921
         101	1	34	3	0.0	42.65399933	16.65699959	33.16899872
         102	1	34	5	0.0	44.92599869	14.0971313	34.17073054
         103	1	35	1	0.0	40.85499954	18.35300064	34.44200134
         104	1	35	3	0.0	41.86999893	20.27199936	35.47000122
         105	1	35	4	0.0	39.52399826	18.16600037	35.19499969
         106	1	36	1	0.0	41.37799835	21.97100067	33.36100006
         107	1	36	3	0.0	39.84700012	22.00900078	31.5189991
         108	1	36	4	0.0	42.81200027	22.21699905	32.86000061
         109	1	37	1	0.0	39.39500046	24.77599907	31.74900055
         110	1	37	3	0.0	40.42699814	26.78499985	32.56399918
         111	1	37	4	0.0	38.00299835	25.04999924	32.37099838
         112	1	38	1	0.0	41.02199936	27.72800064	30.00499916
         113	1	38	3	0.0	39.74399948	27.8220005	28.00300026
         114	1	38	4	0.0	42.44300079	27.45299911	29.44199944
         115	1	39	1	0.0	39.3370018	30.47800064	28.03000069
         116	1	39	3	0.0	39.59500122	32.44900131	29.35899925
         117	1	39	5	0.0	40.07600021	28.30076634	25.11551497
         118	1	40	1	0.0	38.49200058	34.11199951	27.42399979
         119	1	40	3	0.0	36.35599899	33.75400162	26.40600014
         120	1	40	4	0.0	39.375	34.90299988	26.45299911
         121	1	41	1	0.0	35.18000031	35.85800171	27.66300011
         122	1	41	3	0.0	35.55199814	38.03699875	28.57500076
         123	1	41	5	0.0	36.55699921	33.19621261	25.21987287
         124	1	42	1	0.0	33.10100174	37.98799896	29.97900009
         125	1	42	3	0.0	32.48300171	36.49200058	31.75099945
         126	1	42	4	0.0	31.79400063	38.45000076	29.31399918
         127	1	43	1	0.0	32.92399979	38.41400146	33.74900055
         128	1	43	3	0.0	31.20800018	37.32400131	35.02799988
         129	1	43	4	0.0	33.38499832	39.68799973	34.48699951
         130	1	44	1	0.0	29.13100052	38.4659996	33.66999817
         131	1	44	3	0.0	28.42200089	38.68399811	31.38299942
         132	1	44	4	0.0	28.41699982	39.71500015	34.20199966
         133	1	45	1	0.0	27.37299919	36.15399933	31.27700043
         134	1	45	3	0.0	25.41799927	37.4070015	31.90200043
         135	1	45	5	0.0	28.03000069	32.91945736	28.3551857
         136	1	46	1	0.0	24.23200035	37.11000061	29.40999985
         137	1	46	3	0.0	24.21500015	35.47299957	27.66799927
         138	1	46	4	0.0	24.42499924	38.42300034	28.64299965
         139	1	47	1	0.0	21.49600029	34.98300171	27.79599953
         140	1	47	3	0.0	20.75799942	34.9280014	25.50099945
         141	1	47	4	0.0	20.18499947	34.77399826	28.56599998
         142	1	48	1	0.0	21.46699905	37.5719986	24.95199966
         143	1	48	3	0.0	22.7159996	38.2879982	23.04100037
         144	1	48	4	0.0	20.8390007	38.95000076	25.18099976
         145	1	49	1	0.0	25.15600014	37.50600052	24.02599907
         146	1	49	3	0.0	24.89100075	35.48199844	22.77199936
         147	1	49	4	0.0	26.30699921	37.26800156	25.00200081
         148	1	50	1	0.0	26.31800079	36.43099976	20.5739994
         149	1	50	3	0.0	28.52199936	37.38999939	20.66799927
         150	1	50	4	0.0	25.85700035	37.14799881	19.29800034
         151	1	51	1	0.0	29.78700066	34.9129982	20.87700081
         152	1	51	3	0.0	29.89500046	33.77199936	18.76000023
         153	1	51	4	0.0	30.08699989	33.77600098	21.89299965
         154	1	52	1	0.0	32.26100159	34.99300003	17.99200058
         155	1	52	3	0.0	34.21099854	34.81700134	19.36599922
         156	1	52	4	0.0	32.50899887	36.29499817	17.22999954
         157	1	53	1	0.0	35.4129982	32.93000031	17.81500053
         158	1	53	3	0.0	35.29000092	32.11600113	15.56200027
         159	1	53	4	0.0	35.39500046	31.87599945	18.94799995
         160	1	54	1	0.0	38.00699997	31.53100014	15.46100044
         161	1	54	3	0.0	39.98600006	31.27099991	16.78300095
         162	1	54	4	0.0	38.625	32.58399963	14.52299976
         163	1	55	1	0.0	40.02399826	28.52700043	16.60300064
         164	1	55	3	0.0	40.85800171	27.41200066	14.63799953
         165	1	55	4	0.0	39.40200043	27.2159996	17.11000061
         166	1	56	1	0.0	43.23699951	28.82799911	14.59599972
         167	1	56	3	0.0	44.45700073	26.94799995	13.72200012
         168	1	56	5	0.0	42.16799927	27.67681989	12.68304218
         169	1	57	1	0.0	44.47200012	25.57799911	16.1439991
         170	1	57	3	0.0	43.11500168	25.38800049	18.12100029
         171	1	57	4	0.0	45.87400055	25.62299919	16.82600021
         172	1	58	1	0.0	42.25899887	22.79400063	17.5189991
         173	1	58	3	0.0	42.51699829	20.74200058	16.31399918
         174	1	58	4	0.0	40.76499939	22.84799957	17.1439991
         175	1	59	1	0.0	44.45199966	19.74600029	18.04299927
         176	1	59	3	0.0	45.56900024	18.70100021	19.91200066
         177	1	59	4	0.0	45.86700058	20.04100037	17.5510006
         178	1	60	1	0.0	43.34999847	17.57799911	20.96199989
         179	1	60	3	0.0	43.47299957	15.6420002	19.54999924
         180	1	60	4	0.0	41.87400055	17.57999992	21.38599968
         181	1	61	1	0.0	45.15499878	14.22299957	21.29299927
         182	1	61	3	0.0	45.20000076	12.95199966	23.33200073
         183	1	61	4	0.0	46.66899872	14.16300011	21.50900078
         184	1	62	1	0.0	42.47000122	12.72900009	23.48800087
         185	1	62	3	0.0	40.70000076	14.22599983	22.96299934
         186	1	62	5	0.0	43.18500137	10.78097787	22.78059076
         187	1	63	1	0.0	39.52500153	14.03600025	25.5170002
         188	1	63	3	0.0	40.37200165	15.94400024	26.70800018
         189	1	63	4	0.0	39.03900146	13.32600021	26.78700066
         190	1	64	1	0.0	39.10900116	17.79100037	25.04800034
         191	1	64	3	0.0	37.44499969	17.80599976	23.3409996
         192	1	64	5	0.0	39.06800079	17.66346643	24.02406611
         193	1	65	1	0.0	36.20500183	20.17399979	24.25300026
         194	1	65	3	0.0	37.24399948	22.32699966	24.58799934
         195	1	65	4	0.0	35.03300095	20.28700066	25.25099945
         196	1	66	1	0.0	36.08200073	23.44199944	22.28100014
         197	1	66	3	0.0	33.72100067	23.43600082	21.73900032
         198	1	66	4	0.0	36.45000076	23.49799919	20.80200005
         199	1	67	1	0.0	33.02199936	24.9109993	23.95999908
         200	1	67	3	0.0	33.64799881	26.79500008	25.28300095
         201	1	67	4	0.0	32.68799973	23.77300072	25.01199913
         202	1	68	1	0.0	31.1420002	27.95100021	25.22699928
         203	1	68	3	0.0	30.43499947	26.20700073	26.76399994
         204	1	68	4	0.0	29.80999947	28.49699974	24.72400093
         205	1	69	1	0.0	31.31599998	27.52799988	28.99600029
         206	1	69	3	0.0	31.46299934	29.72299957	29.90299988
         207	1	69	4	0.0	32.72200012	26.97299957	29.29000092
         208	1	70	1	0.0	29.78000069	29.29500008	31.93199921
         209	1	70	3	0.0	28.71299934	27.54000092	33.16199875
         210	1	70	5	0.0	30.11499977	28.73408405	30.10511401
         211	1	71	1	0.0	27.94599915	29.21299934	35.22399902
         212	1	71	3	0.0	26.9659996	31.39299965	35.25799942
         213	1	71	4	0.0	28.86000061	29.16500092	36.45800018
         214	1	72	1	0.0	24.9109993	30.5890007	36.9640007
         215	1	72	3	0.0	25.2670002	28.9260006	38.67200089
         216	1	72	4	0.0	23.46800041	30.52099991	36.39400101
         217	1	73	1	0.0	24.15399933	30.54000092	40.69200134
         218	1	73	3	0.0	22.01099968	31.46800041	40.13100052
         219	1	73	4	0.0	24.94099998	31.45899963	41.63100052
         220	1	74	1	0.0	20.68199921	30.1970005	42.26200104
         221	1	74	3	0.0	18.97699928	30.66399956	40.61299896
         222	1	74	4	0.0	20.36100006	31.60199928	42.78699875
         223	1	75	1	0.0	20.63400078	27.49399948	41.19300079
         224	1	75	3	0.0	22.21800041	28.06200027	39.46300125
         225	1	75	4	0.0	19.80699921	26.23999977	40.94200134
         226	1	76	1	0.0	24.20400047	26.39800072	40.54800034
         227	1	76	3	0.0	23.70499992	24.34700012	39.40399933
         228	1	76	4	0.0	25.04400063	25.71800041	41.62799835
         229	1	77	1	0.0	24.4489994	25.28700066	36.9070015
         230	1	77	3	0.0	26.11199951	26.72999954	35.95899963
         231	1	77	4	0.0	23.19400024	25.67499924	36.06399918
         232	1	78	1	0.0	27.50600052	24.63100052	34.70500183
         233	1	78	3	0.0	26.37299919	23.24900055	33.10699844
         234	1	78	4	0.0	28.5359993	23.57699966	35.11000061
         235	1	79	1	0.0	26.54500008	24.9829998	31.0340004
         236	1	79	3	0.0	28.64699936	25.61700058	30.0359993
         237	1	79	4	0.0	25.40399933	25.96199989	30.72100067
         238	1	80	1	0.0	28.1079998	24.12700081	27.68799973
         239	1	80	3	0.0	26.26499939	23.75699997	26.22100067
         240	1	80	4	0.0	28.6609993	22.69400024	27.71999931
         241	1	81	1	0.0	27.62800026	24.70700073	23.95599937
         242	1	81	3	0.0	29.8390007	24.96100044	22.98500061
         243	1	81	4	0.0	27.16500092	26.04100037	23.36499977
         244	1	82	1	0.0	30.11100006	22.23699951	22.46999931
         245	1	82	3	0.0	29.25399971	21.58099937	20.35400009
         246	1	82	4	0.0	30.22400093	20.77899933	23.00099945
         247	1	83	1	0.0	31.2310009	22.9090004	18.87899971
         248	1	83	3	0.0	31.98699951	21.39699936	17.18499947
         249	1	83	4	0.0	31.66900063	24.29400063	18.40399933
         250	1	84	1	0.0	34.07699966	20.41600037	18.64699936
         251	1	84	3	0.0	34.51800156	20.17499924	21.0
         252	1	84	4	0.0	35.19200134	20.93400002	17.75200081
         253	1	85	1	0.0	35.7820015	17.7310009	20.69300079
         254	1	85	3	0.0	37.23600006	16.96100044	18.93899918
         255	1	85	4	0.0	34.66799927	16.85099983	21.29899979
         256	1	86	1	0.0	38.60800171	15.22299957	20.60400009
         257	1	86	3	0.0	37.38700104	13.56299973	19.37100029
         258	1	86	5	0.0	37.52199936	14.30696951	19.08290015
         259	1	87	1	0.0	38.17100143	11.5	21.00900078
         260	1	87	3	0.0	36.33399963	10.01200008	21.3409996
         261	1	87	4	0.0	39.25899887	10.59500027	21.62100029
         262	1	88	1	0.0	35.02899933	11.64999962	23.15600014
         263	1	88	3	0.0	34.21900177	13.89799976	23.25900078
         264	1	88	4	0.0	35.32600021	11.45899963	24.6590004
         265	1	89	1	0.0	31.70700073	13.2869997	22.2859993
         266	1	89	3	0.0	30.37700081	12.15499973	23.93400002
         267	1	89	4	0.0	30.84399986	12.92300034	21.06999969
         268	1	90	1	0.0	29.98699951	14.33100033	25.52599907
         269	1	90	3	0.0	27.90200043	14.72299957	24.39699936
         270	1	90	4	0.0	30.29899979	15.69499969	26.14699936
         271	1	91	1	0.0	26.45499992	12.99100018	25.9829998
         272	1	91	3	0.0	26.61800003	12.86499977	28.375
         273	1	91	4	0.0	26.13800049	11.71500015	25.16500092
         274	1	92	1	0.0	23.9090004	12.67099953	28.79299927
         275	1	92	3	0.0	22.23399925	11.45800018	27.62599945
         276	1	92	5	0.0	24.55699921	12.01116914	28.34468451
         277	1	93	1	0.0	20.13400078	12.43500042	29.18199921
         278	1	93	3	0.0	19.59600067	14.53499985	28.13800049
         279	1	93	4	0.0	19.37299919	12.73099995	30.48600006
         280	1	94	1	0.0	18.69400024	13.36499977	25.77899933
         281	1	94	3	0.0	16.39800072	13.50199986	26.51600075
         282	1	94	4	0.0	18.52799988	12.3760004	24.62400055
         283	1	95	1	0.0	16.15299988	16.20700073	25.79899979
         284	1	95	3	0.0	14.30500031	16.8239994	24.41399956
         285	1	95	4	0.0	16.52300072	17.45899963	26.5909996
         286	1	96	1	0.0	15.80599976	17.23500061	22.15699959
         287	1	96	3	0.0	18.09799957	17.57600021	21.66500092
         288	1	96	5	0.0	16.32799911	16.18012583	20.03032484
         289	1	97	1	0.0	17.65600014	19.25499916	19.49699974
         290	1	97	3	0.0	16.20199966	21.16799927	19.47699928
         291	1	97	4	0.0	17.78300095	18.59499931	18.10899925
         292	1	98	1	0.0	18.18199921	22.86899948	18.49799919
         293	1	98	3	0.0	20.25099945	22.68099976	17.29700089
         294	1	98	4	0.0	18.48399925	23.82500076	19.69499969
         295	1	99	1	0.0	19.38699913	24.22500038	15.16100025
         296	1	99	3	0.0	18.96500015	26.52499962	15.72099972
         297	1	99	4	0.0	18.56900024	24.11599922	13.86999989
         298	1	100	1	0.0	21.5739994	27.29599953	15.49300003
         299	1	100	3	0.0	23.71999931	26.55800056	14.72599983
         300	1	100	4	0.0	21.77400017	27.54400063	17.00399971
         301	1	101	1	0.0	24.34900093	28.99799919	13.52999973
         302	1	101	3	0.0	26.04800034	27.6439991	12.52200031
         303	1	101	4	0.0	25.42499924	29.2859993	14.58699989
         304	1	102	1	0.0	24.32099915	26.43199921	10.73600006
         305	1	102	3	0.0	24.85499954	24.15399933	10.38099957
         306	1	102	5	0.0	23.94499969	24.71594101	8.81241539
         307	1	103	1	0.0	24.51499939	23.38500023	12.96899986
         308	1	103	3	0.0	22.43400002	23.66200066	14.10700035
         309	1	103	5	0.0	24.33300018	20.92908951	12.1083406
         310	1	104	1	0.0	22.20499992	20.95100021	14.76099968
         311	1	104	3	0.0	23.91300011	19.73699951	15.93799973
         312	1	104	4	0.0	21.5340004	19.8029995	14.02499962
         313	1	105	1	0.0	22.87400055	20.37000084	18.44499969
         314	1	105	3	0.0	20.70800018	19.73200035	19.21199989
         315	1	105	4	0.0	23.13299942	21.62700081	19.29599953
         316	1	106	1	0.0	21.63199997	17.62000084	20.74600029
         317	1	106	3	0.0	22.68400002	18.90200043	22.49099922
         318	1	106	4	0.0	22.24799919	16.23699951	20.89599991
         319	1	107	1	0.0	20.45499992	18.86199951	24.14900017
         320	1	107	3	0.0	19.70999908	16.79599953	25.11800003
         321	1	107	4	0.0	19.15399933	19.68199921	24.2859993
         322	1	108	1	0.0	21.50799942	16.88299942	27.22999954
         323	1	108	3	0.0	22.0170002	18.66200066	28.74600029
         324	1	108	4	0.0	22.81200027	16.08499908	27.08600044
         325	1	109	1	0.0	21.4640007	17.13899994	30.99699974
         326	1	109	3	0.0	22.13199997	14.84300041	31.29599953
         327	1	109	4	0.0	20.16500092	17.37199974	31.81599998
         328	1	110	1	0.0	23.87199974	15.48099995	33.39899826
         329	1	110	3	0.0	23.5909996	17.25600052	35.00400162
         330	1	110	4	0.0	25.32699966	15.26099968	32.87900162
         331	1	111	1	0.0	24.60899925	15.77499962	37.10900116
         332	1	111	3	0.0	26.47400093	14.2869997	37.2140007
         333	1	111	4	0.0	23.56800079	15.11499977	38.01800156
         334	1	112	1	0.0	27.99799919	16.01099968	38.82099915
         335	1	112	3	0.0	27.0890007	16.59900093	40.97000122
         336	1	112	4	0.0	28.93099976	17.19000053	38.54800034
         337	1	113	1	0.0	28.36899948	14.52099991	42.30599976
         338	1	113	3	0.0	30.7140007	14.13399982	42.63199997
         339	1	113	4	0.0	27.90099907	13.07199955	42.49499893
         340	1	114	1	0.0	30.84900093	15.84399986	44.89400101
         341	1	114	3	0.0	33.13100052	15.74199963	44.09999847
         342	1	114	4	0.0	31.23900032	14.60999966	45.71900177
         343	1	115	1	0.0	32.73500061	17.74900055	42.20399857
         344	1	115	3	0.0	32.20299911	19.9260006	43.02099991
         345	1	115	4	0.0	32.18600082	17.58499908	40.77899933
         346	1	116	1	0.0	34.58100128	21.08499908	42.2820015
         347	1	116	3	0.0	33.30500031	21.70999908	40.3370018
         348	1	116	4	0.0	36.00699997	21.16900063	41.72399902
         349	1	117	1	0.0	32.3429985	24.01799965	41.41899872
         350	1	117	3	0.0	34.125	25.5359993	41.93199921
         351	1	117	4	0.0	30.99900055	24.14100075	42.13100052
         352	1	118	1	0.0	32.83499908	27.6989994	40.72800064
         353	1	118	3	0.0	34.16500092	29.04899979	42.17300034
         354	1	118	4	0.0	31.82799911	28.59900093	39.9679985
         355	1	119	1	0.0	32.66500092	28.47800064	44.47999954
         356	1	119	3	0.0	34.06900024	28.1989994	46.39699936
         357	1	119	4	0.0	31.39800072	28.28499985	45.32400131
         358	1	120	1	0.0	35.54100037	26.15500069	45.33300018
         359	1	120	3	0.0	33.65200043	24.86899948	46.08100128
         360	1	120	5	0.0	34.48099899	24.53812006	42.64255748
         361	1	121	1	0.0	35.16899872	23.04999924	47.51100159
         362	1	121	3	0.0	34.74100113	22.06999969	45.36800003
         363	1	121	4	0.0	34.30199814	23.50300026	48.6969986
         364	1	122	1	0.0	32.88199997	20.25499916	46.24700165
         365	1	122	3	0.0	30.97599983	20.40500069	47.65999985
         366	1	122	4	0.0	33.44599915	18.86000061	46.50699997
         367	1	123	1	0.0	29.15999985	19.87700081	45.68099976
         368	1	123	3	0.0	29.22100067	18.58300018	43.65599823
         369	1	123	4	0.0	28.53700066	21.2840004	45.8390007
         370	1	124	1	0.0	26.45599937	18.29199982	43.5320015
         371	1	124	3	0.0	25.02899933	20.22599983	43.2859993
         372	1	124	4	0.0	25.46999931	17.29199982	44.16400146
         373	1	125	1	0.0	25.16900063	20.31200027	40.56399918
         374	1	125	3	0.0	25.35700035	18.72699928	38.77700043
         375	1	125	4	0.0	26.04100037	21.57900047	40.4129982
         376	1	126	1	0.0	23.42700005	20.0170002	37.2120018
         377	1	126	3	0.0	24.71899986	21.84600067	36.32500076
         378	1	126	4	0.0	21.95299911	20.38500023	37.01499939
         379	1	127	1	0.0	25.07900047	20.56999969	33.83200073
         380	1	127	3	0.0	23.33699989	19.5739994	32.5
         381	1	127	4	0.0	26.2689991	19.69000053	33.44900131
         382	1	128	1	0.0	23.19000053	21.7310009	30.72200012
         383	1	128	3	0.0	25.16200066	22.41200066	29.54899979
         384	1	128	4	0.0	22.43899918	23.05400085	30.67300034
         385	1	129	1	0.0	24.62899971	20.82999992	27.31599998
         386	1	129	3	0.0	22.75799942	20.48600006	25.87999916
         387	1	129	4	0.0	25.26399994	19.43400002	27.1970005
         388	1	130	1	0.0	24.10199928	21.64800072	23.65399933
         389	1	130	3	0.0	26.45299911	21.71699905	23.20999908
         390	1	130	4	0.0	23.79800034	23.03899956	23.10400009
         391	1	131	1	0.0	26.49799919	19.33200073	21.75799942
         392	1	131	3	0.0	25.29000092	18.49900055	19.85700035
         393	1	131	4	0.0	26.80400085	17.95800018	22.39800072
         394	1	132	1	0.0	26.87899971	19.67700005	17.98200035
         395	1	132	3	0.0	27.60400009	17.38100052	18.10000038
         396	1	132	4	0.0	27.97299957	20.45100021	17.24900055
         397	1	133	1	0.0	25.94099998	16.46100044	16.14299965
         398	1	133	3	0.0	27.54400063	14.81999969	15.47999954
         399	1	133	4	0.0	24.6760006	16.2159996	15.31799984
         400	1	134	1	0.0	29.08499908	16.66799927	13.98700047
         401	1	134	3	0.0	29.55400085	18.90800095	14.74100018
         402	1	134	4	0.0	28.85499954	16.64800072	12.46700001
         403	1	135	1	0.0	32.27799988	18.62999916	14.72399998
         404	1	135	3	0.0	32.13100052	19.66200066	12.5539999
         405	1	135	4	0.0	33.72100067	18.09600067	14.73999977
         406	1	136	1	0.0	32.23099899	22.22599983	13.55099964
         407	1	136	3	0.0	34.61899948	22.26099968	13.78899956
         408	1	136	4	0.0	31.8390007	23.43199921	14.39799976
         409	1	137	1	0.0	35.18500137	22.86700058	11.19799995
         410	1	137	3	0.0	35.125	24.97800064	12.33399963
         411	1	137	4	0.0	34.92200089	23.24099922	9.74100018
         412	1	138	1	0.0	37.79999924	25.1060009	12.81599998
         413	1	138	3	0.0	38.81999969	25.49900055	10.68400002
         414	1	138	4	0.0	38.65100098	24.60400009	13.99300003
         415	1	139	1	0.0	39.95899963	27.8939991	11.41399956
         416	1	139	3	0.0	39.72600174	29.90600014	10.14299965
         417	1	139	5	0.0	39.13600159	26.21580726	10.27789407
         418	1	140	1	0.0	36.94900131	29.96999931	10.38000011
         419	1	140	3	0.0	36.38999939	30.47800064	12.65699959
         420	1	140	4	0.0	35.83499908	29.28800011	9.5909996
         421	1	141	1	0.0	34.99300003	32.80699921	11.98400021
         422	1	141	3	0.0	32.77600098	32.06499863	11.40699959
         423	1	141	4	0.0	34.7859993	34.18399811	11.35000038
         424	1	142	1	0.0	32.25600052	31.03700066	13.95300007
         425	1	142	3	0.0	31.99900055	32.72499847	15.63599968
         426	1	142	4	0.0	32.61700058	29.70400047	14.60099983
         427	1	143	1	0.0	29.24200058	32.36299896	15.78100014
         428	1	143	3	0.0	28.01600075	30.32600021	16.125
         429	1	143	4	0.0	28.28300095	33.22499847	14.93900013
         430	1	144	1	0.0	27.30400085	30.98600006	18.72699928
         431	1	144	3	0.0	26.59300041	32.93299866	19.95599937
         432	1	144	4	0.0	28.02700043	30.34199905	19.9260006
         433	1	145	1	0.0	23.92399979	32.74399948	19.10000038
         434	1	145	3	0.0	22.43799973	31.22200012	20.26499939
         435	1	145	4	0.0	22.91900063	32.8429985	17.94499969
         436	1	146	1	0.0	23.49099922	31.85199928	22.75200081
         437	1	146	3	0.0	21.50499916	30.95000076	23.69300079
         438	1	146	4	0.0	24.37700081	32.37900162	23.88699913
         439	1	147	1	0.0	19.91799927	33.0719986	22.95499992
         440	1	147	3	0.0	18.15099907	31.43499947	23.0340004
         441	1	147	4	0.0	19.35400009	34.39300156	22.40699959
         442	1	148	1	0.0	18.82699966	30.18000031	20.66500092
         443	1	148	3	0.0	17.96100044	28.19300079	21.69400024
         444	1	148	4	0.0	19.4109993	29.78800011	19.30599976
         445	1	149	1	0.0	20.26600075	27.68499947	23.15600014
         446	1	149	3	0.0	18.79400063	26.96299934	24.88199997
         447	1	149	4	0.0	21.76099968	27.49799919	23.43300056
         448	1	150	1	0.0	18.81100082	29.38899994	26.22699928
         449	1	150	3	0.0	16.65299988	28.49300003	26.84600067
         450	1	150	4	0.0	19.0359993	30.85000038	26.63699913
         451	1	151	1	0.0	15.37699986	29.38699913	24.58600044
         452	1	151	3	0.0	13.95899963	27.47900009	24.88299942
         453	1	151	4	0.0	14.95899963	30.26099968	23.40800095
         454	1	152	1	0.0	15.56200027	25.75900078	23.45800018
         455	1	152	3	0.0	14.81499958	24.13299942	25.0720005
         456	1	152	4	0.0	16.55800056	25.16600037	22.47200012
         457	1	153	1	0.0	16.72599983	24.74300003	26.92900085
         458	1	153	3	0.0	14.94699955	24.09499931	28.40699959
         459	1	153	4	0.0	17.97100067	25.24399948	27.66900063
         460	1	154	1	0.0	13.83199978	26.64800072	28.5189991
         461	1	154	3	0.0	11.83300018	25.38599968	28.95199966
         462	1	154	4	0.0	13.56599998	28.13100052	28.27099991
         463	1	155	1	0.0	11.38199997	24.7310009	26.3010006
         464	1	155	3	0.0	10.35499954	22.61000061	26.75499916
         465	1	155	4	0.0	11.36400032	24.74799919	24.77199936
         466	1	156	1	0.0	12.62199974	21.47299957	27.8560009
         467	1	156	3	0.0	13.25300026	20.54199982	29.9810009
         468	1	156	4	0.0	13.79300022	20.71100044	27.22900009
         469	1	157	1	0.0	12.38899994	22.72500038	31.43499947
         470	1	157	3	0.0	13.97799969	22.70800018	33.22100067
         471	1	157	5	0.0	12.31999969	21.28706724	30.43512689
         472	1	158	1	0.0	16.11599922	23.54999924	31.66200066
         473	1	158	3	0.0	16.70100021	25.75900078	30.92399979
         474	1	158	4	0.0	17.10199928	23.01000023	30.61800003
         475	1	159	1	0.0	16.05200005	26.93600082	33.34999847
         476	1	159	3	0.0	17.79000092	26.59199905	34.96099854
         477	1	159	4	0.0	14.84899998	27.34799957	34.19900131
         478	1	160	1	0.0	19.22299957	28.81599998	34.15999985
         479	1	160	3	0.0	17.87199974	30.01600075	35.74700165
         480	1	160	4	0.0	19.9810009	29.6609993	33.12799835
         481	1	161	1	0.0	19.93199921	30.45899963	37.51800156
         482	1	161	3	0.0	19.98900032	32.45399857	36.1780014
         483	1	161	5	0.0	20.04700089	28.28179507	36.45872492
         484	1	162	1	0.0	19.23800087	34.11899948	38.22800064
         485	1	162	3	0.0	20.52700043	36.13299942	38.08499908
         486	1	162	4	0.0	18.15299988	34.5929985	39.19300079
         487	1	163	1	0.0	22.7859993	35.10100174	39.20600128
         488	1	163	3	0.0	24.29000092	33.47000122	38.31700134
         489	1	163	4	0.0	23.27300072	34.91799927	40.64699936
         490	1	164	1	0.0	25.11499977	35.03099823	36.19800186
         491	1	164	3	0.0	26.98600006	36.30500031	37.00699997
         492	1	164	4	0.0	24.81999969	35.7879982	34.90200043
         493	1	165	1	0.0	28.8010006	34.23500061	36.60900116