ITEM: TIMESTEP
0
ITEM: NUMBER OF ATOMS
555
ITEM: BOX BOUNDS ss ss ss
10.315 52.398
9.972 44.474
8.77242 48.737
ITEM: ATOMS id type xs ys zs
1 1 0.55343 0.95751 0.32245
2 3 0.599577 0.918005 0.331683
3 4 0.525081 0.943916 0.343118
4 1 0.621534 0.962147 0.384155
5 3 0.586508 0.936873 0.426442
6 4 0.634769 0.998841 0.400369
7 1 0.627569 0.87708 0.443007
8 3 0.663617 0.91928 0.471307
9 4 0.64513 0.839401 0.434599
10 1 0.640377 0.904759 0.533887
11 3 0.650476 0.883775 0.589612
12 4 0.617233 0.935453 0.547249
13 1 0.650001 0.806968 0.574423
14 3 0.670413 0.765463 0.531085
15 4 0.61785 0.789259 0.584557
16 1 0.717297 0.733233 0.573122
17 3 0.714683 0.705206 0.628346
18 4 0.751135 0.74958 0.575099
19 1 0.697408 0.631587 0.603599
20 3 0.734144 0.593473 0.571696
21 4 0.667039 0.612225 0.590362
22 1 0.767507 0.567416 0.625944
23 3 0.781836 0.552896 0.682569
24 4 0.79847 0.591009 0.623842
25 1 0.746905 0.485131 0.684396
26 3 0.752703 0.429424 0.64929
27 4 0.711974 0.482639 0.69558
28 1 0.787563 0.388006 0.696406
29 3 0.787087 0.388209 0.756109
30 4 0.822684 0.386383 0.685071
31 1 0.778295 0.31004 0.76254
32 3 0.816505 0.278766 0.798321
33 4 0.756695 0.274187 0.761063
34 1 0.868878 0.306214 0.763591
35 3 0.915286 0.270013 0.748728
36 5 0.835801 0.282353 0.720093
37 1 0.883207 0.216277 0.711795
38 3 0.886557 0.24758 0.658172
39 5 0.868403 0.147683 0.656995
40 1 0.944586 0.214104 0.642834
41 3 0.9568 0.2801 0.656871
42 5 0.927168 0.161529 0.563741
43 1 0.970035 0.299664 0.590362
44 3 0.929496 0.303722 0.548901
45 4 0.999049 0.294708 0.565916
46 1 0.914859 0.381195 0.563439
47 3 0.936697 0.441801 0.58198
48 4 0.88392 0.387311 0.583882
49 1 0.959604 0.462814 0.52025
50 3 0.930399 0.485102 0.472358
51 4 0.988546 0.455104 0.49778
52 1 0.89611 0.540143 0.508815
53 3 0.924316 0.596429 0.527081
54 4 0.867714 0.541766 0.532586
55 1 0.917948 0.634862 0.466528
56 3 0.869425 0.656571 0.441105
57 4 0.938289 0.634572 0.434474
58 1 0.86807 0.725755 0.477913
59 3 0.902241 0.776998 0.458721
60 4 0.865528 0.745145 0.512393
61 1 0.882256 0.773318 0.393088
62 3 0.849084 0.825112 0.411604
63 5 0.870494 0.703878 0.33033
64 1 0.861393 0.872442 0.357631
65 3 0.815697 0.841603 0.332859
66 4 0.879476 0.895137 0.330382
67 1 0.774802 0.900846 0.350975
68 3 0.761329 0.853661 0.392487
69 5 0.80845 0.848531 0.299763
70 1 0.721479 0.812793 0.351301
71 3 0.722976 0.744421 0.342693
72 5 0.739087 0.733523 0.329424
73 1 0.786256 0.741667 0.326754
74 3 0.812632 0.739088 0.380151
75 4 0.812442 0.751551 0.301131
76 1 0.8171 0.659701 0.381152
77 3 0.815911 0.610921 0.338264
78 4 0.795618 0.652455 0.411779
79 1 0.860442 0.564576 0.369141
80 3 0.871516 0.552142 0.426767
81 4 0.889599 0.567967 0.346196
82 1 0.871635 0.472755 0.419136
83 3 0.881567 0.425714 0.376498
84 4 0.840577 0.455278 0.434449
85 1 0.93059 0.389543 0.413055
86 3 0.933893 0.379891 0.471857
87 4 0.966067 0.39731 0.407651
88 1 0.909583 0.307229 0.471507
89 3 0.922534 0.251058 0.438953
90 4 0.874605 0.307924 0.482817
91 1 0.945156 0.21022 0.493101
92 3 0.94392 0.201148 0.552479
93 4 0.981251 0.213872 0.488547
94 1 0.917378 0.125268 0.547675
95 3 0.913908 0.142832 0.605851
96 4 0.947984 0.105066 0.558359
97 1 0.859991 0.186656 0.596493
98 3 0.828791 0.131152 0.612607
99 4 0.841789 0.220741 0.579678
100 1 0.795594 0.174628 0.660825
101 3 0.768458 0.193757 0.610455
102 5 0.822446 0.119562 0.635521
103 1 0.725709 0.242913 0.642308
104 3 0.749828 0.298533 0.668031
105 4 0.694081 0.237494 0.66115
106 1 0.738136 0.347777 0.615259
107 3 0.701756 0.348878 0.569169
108 4 0.772212 0.354907 0.602723
109 1 0.691015 0.429077 0.574924
110 3 0.715538 0.487305 0.595317
111 4 0.657938 0.437018 0.590487
112 1 0.729677 0.514637 0.531285
113 3 0.699308 0.517361 0.481191
114 4 0.763444 0.506666 0.517198
115 1 0.689637 0.594342 0.481866
116 3 0.695768 0.65147 0.515121
117 5 0.707198 0.531238 0.40894
118 1 0.669558 0.69967 0.466703
119 3 0.618801 0.689293 0.44123
120 4 0.69054 0.722596 0.442406
121 1 0.590856 0.750275 0.472683
122 3 0.599696 0.813431 0.495503
123 5 0.623577 0.673127 0.411551
124 1 0.541454 0.812011 0.530634
125 3 0.526769 0.768651 0.574974
126 4 0.510396 0.825401 0.513995
127 1 0.537248 0.824358 0.624968
128 3 0.496471 0.792766 0.656971
129 4 0.548202 0.861283 0.643434
130 1 0.447116 0.825865 0.622991
131 3 0.430269 0.832184 0.565766
132 4 0.43015 0.862066 0.636303
133 1 0.405342 0.758855 0.563113
134 3 0.358886 0.795171 0.578752
135 5 0.420954 0.665105 0.490003
136 1 0.330704 0.786563 0.516397
137 3 0.3303 0.739117 0.472808
138 4 0.33529 0.824619 0.497205
139 1 0.265689 0.724915 0.476011
140 3 0.248152 0.72332 0.418585
141 4 0.234536 0.718857 0.495278
142 1 0.265 0.799954 0.404848
143 3 0.29468 0.820706 0.357031
144 4 0.250077 0.839893 0.410578
145 1 0.35266 0.798041 0.381678
146 3 0.346363 0.739377 0.3503
147 4 0.380011 0.791143 0.406099
148 1 0.380272 0.766883 0.295301
149 3 0.432645 0.794679 0.297653
150 4 0.369318 0.787664 0.263373
151 1 0.462705 0.722886 0.302883
152 3 0.465271 0.689815 0.249911
153 4 0.469833 0.689931 0.328305
154 1 0.521493 0.725204 0.230694
155 3 0.56783 0.720103 0.265074
156 4 0.527386 0.762941 0.211627
157 1 0.596393 0.665411 0.226265
158 3 0.59347 0.641818 0.16989
159 4 0.595965 0.634862 0.254615
160 1 0.658033 0.624862 0.167363
161 3 0.705059 0.617327 0.200442
162 4 0.672718 0.655382 0.143892
163 1 0.705962 0.537795 0.195938
164 3 0.72578 0.505478 0.14677
165 4 0.691182 0.499797 0.208624
166 1 0.782311 0.546519 0.145719
167 3 0.811301 0.492029 0.123849
168 5 0.756909 0.513153 0.0978523
169 1 0.811658 0.452322 0.184453
170 3 0.779412 0.446815 0.233922
171 4 0.844973 0.453626 0.201518
172 1 0.759071 0.371631 0.218858
173 3 0.765202 0.312156 0.188707
174 4 0.72357 0.373196 0.209475
175 1 0.811183 0.283288 0.23197
176 3 0.837725 0.253 0.278736
177 4 0.844807 0.291838 0.219659
178 1 0.784996 0.220451 0.30501
179 3 0.787919 0.164338 0.269678
180 4 0.749923 0.220509 0.315619
181 1 0.827888 0.12321 0.313292
182 3 0.828957 0.0863718 0.364312
183 4 0.863864 0.121471 0.318697
184 1 0.764085 0.0799084 0.368216
185 3 0.722026 0.123297 0.355079
186 5 0.781075 0.0234473 0.350515
187 1 0.694105 0.11779 0.418986
188 3 0.714231 0.173091 0.448787
189 4 0.682556 0.0972118 0.450764
190 1 0.684219 0.226625 0.40725
191 3 0.644678 0.227059 0.364537
192 5 0.683245 0.222928 0.381629
193 1 0.615213 0.295693 0.387358
194 3 0.639902 0.358095 0.39574
195 4 0.587363 0.298968 0.41233
196 1 0.61229 0.390412 0.338014
197 3 0.556187 0.390238 0.324452
198 4 0.621035 0.392035 0.301006
199 1 0.539577 0.432989 0.380026
200 3 0.554452 0.487595 0.41313
201 4 0.53164 0.400006 0.406349
202 1 0.494903 0.5211 0.411729
203 3 0.478103 0.470552 0.450188
204 4 0.463251 0.536925 0.399143
205 1 0.499038 0.50884 0.506038
206 3 0.502531 0.57246 0.528733
207 4 0.532448 0.492754 0.513394
208 1 0.462538 0.560055 0.579503
209 3 0.437184 0.509188 0.61028
210 5 0.470499 0.543797 0.53379
211 1 0.418958 0.557678 0.661876
212 3 0.39567 0.620863 0.662726
213 4 0.440677 0.556287 0.692753
214 1 0.346838 0.59756 0.705414
215 3 0.355298 0.54936 0.748152
216 4 0.312549 0.595589 0.691152
217 1 0.32885 0.596139 0.798697
218 3 0.277927 0.623036 0.784659
219 4 0.347551 0.622776 0.822193
220 1 0.246346 0.586198 0.837982
221 3 0.205831 0.599733 0.79672
222 4 0.238719 0.62692 0.851118
223 1 0.245206 0.507855 0.811233
224 3 0.282846 0.524317 0.767945
225 4 0.225554 0.471509 0.804952
226 1 0.330038 0.476088 0.795094
227 3 0.318181 0.416643 0.766468
228 4 0.349999 0.456379 0.822117
229 1 0.33586 0.443887 0.703988
230 3 0.375377 0.485711 0.680267
231 4 0.306038 0.455133 0.682894
232 1 0.408502 0.424874 0.648889
233 3 0.381579 0.384818 0.608904
234 4 0.432978 0.394325 0.659023
235 1 0.385666 0.435076 0.557033
236 3 0.435615 0.453452 0.532061
237 4 0.358553 0.463451 0.549201
238 1 0.422807 0.410266 0.473309
239 3 0.379013 0.399542 0.436601
240 4 0.435948 0.368732 0.474109
241 1 0.411401 0.427077 0.379926
242 3 0.46394 0.434439 0.35563
243 4 0.400399 0.465741 0.365138
244 1 0.470404 0.355487 0.342743
245 3 0.450039 0.336473 0.289796
246 4 0.473089 0.313228 0.35603
247 1 0.497018 0.374964 0.252889
248 3 0.514982 0.33114 0.210501
249 4 0.507426 0.415106 0.241003
250 1 0.564646 0.302707 0.247083
251 3 0.575125 0.295722 0.305961
252 4 0.591141 0.317721 0.224689
253 1 0.605161 0.224886 0.298279
254 3 0.639712 0.202568 0.25439
255 4 0.57869 0.19938 0.313442
256 1 0.672314 0.152194 0.296052
257 3 0.6433 0.104081 0.265199
258 5 0.646508 0.125644 0.257991
259 1 0.66193 0.0442873 0.306186
260 3 0.618278 0.00115935 0.314493
261 4 0.687784 0.0180569 0.321499
262 1 0.587268 0.0486349 0.359908
263 3 0.56802 0.113791 0.362486
264 4 0.594325 0.0430989 0.397517
265 1 0.508329 0.0960814 0.338139
266 3 0.476725 0.0632717 0.379376
267 4 0.487822 0.0855313 0.307712
268 1 0.467457 0.126341 0.419211
269 3 0.417912 0.137702 0.390961
270 4 0.474871 0.165874 0.43475
271 1 0.383528 0.0875022 0.430646
272 3 0.387401 0.0838502 0.490499
273 4 0.375995 0.0505188 0.410178
274 1 0.323028 0.0782273 0.500958
275 3 0.283226 0.04307 0.471757
276 5 0.338426 0.0591029 0.48974
277 1 0.233325 0.0713872 0.510692
278 3 0.22054 0.132253 0.484569
279 4 0.215241 0.0799664 0.543321
280 1 0.199107 0.0983421 0.425541
281 3 0.144548 0.102313 0.443983
282 4 0.195162 0.0696771 0.396641
283 1 0.138726 0.180714 0.426042
284 3 0.0948126 0.198597 0.391386
285 4 0.147518 0.217002 0.445859
286 1 0.13048 0.21051 0.334911
287 3 0.184944 0.220393 0.3226
288 5 0.142884 0.179935 0.281697
289 1 0.174441 0.269057 0.268352
290 3 0.13989 0.324503 0.267852
291 4 0.177459 0.249928 0.233621
292 1 0.18694 0.373804 0.243355
293 3 0.236105 0.368355 0.213304
294 4 0.194116 0.401513 0.273307
295 1 0.215574 0.413107 0.159856
296 3 0.205546 0.479769 0.173869
297 4 0.196136 0.409947 0.127553
298 1 0.267543 0.502116 0.168164
299 3 0.318537 0.480726 0.148972
300 4 0.272295 0.509304 0.205972
301 1 0.333484 0.551446 0.119045
302 3 0.373856 0.512202 0.0938227
303 4 0.359052 0.559794 0.145493
304 1 0.332818 0.477074 0.0491331
305 3 0.345508 0.411049 0.0402502
306 5 0.323884 0.427336 0.00100089
307 1 0.337428 0.38876 0.105008
308 3 0.287979 0.396789 0.133483
309 5 0.333104 0.317578 0.083472
310 1 0.282537 0.318213 0.149847
311 3 0.323123 0.283027 0.179298
312 4 0.266592 0.28494 0.131431
313 1 0.298434 0.301374 0.242029
314 3 0.246964 0.282882 0.261221
315 4 0.304589 0.337807 0.263323
316 1 0.268921 0.221668 0.299605
317 3 0.293919 0.258826 0.343269
318 4 0.283559 0.181584 0.303358
319 1 0.240952 0.257666 0.384755
320 3 0.223249 0.197786 0.409002
321 4 0.210037 0.281433 0.388183
322 1 0.265974 0.200307 0.461849
323 3 0.27807 0.251869 0.499782
324 4 0.296961 0.177178 0.458245
325 1 0.264929 0.207727 0.556107
326 3 0.280802 0.14118 0.563589
327 4 0.234061 0.21448 0.5766
328 1 0.322149 0.159672 0.61621
329 3 0.315472 0.211118 0.656371
330 4 0.356724 0.153295 0.603199
331 1 0.339662 0.168193 0.709042
332 3 0.383979 0.125065 0.71167
333 4 0.314925 0.149064 0.731788
334 1 0.420193 0.175033 0.75188
335 3 0.398593 0.192076 0.805653
336 4 0.442364 0.209205 0.745049
337 1 0.429009 0.131847 0.839083
338 3 0.484733 0.120631 0.84724
339 4 0.417888 0.0898499 0.843812
340 1 0.487941 0.170193 0.90384
341 3 0.542167 0.167237 0.883972
342 4 0.497208 0.134427 0.924483
343 1 0.532757 0.225407 0.83653
344 3 0.520115 0.288505 0.856973
345 4 0.519711 0.220654 0.800874
346 1 0.576622 0.322097 0.838482
347 3 0.546301 0.340212 0.789814
348 4 0.610508 0.324532 0.82452
349 1 0.523442 0.407107 0.816888
350 3 0.565787 0.451104 0.829724
351 4 0.491505 0.410672 0.834704
352 1 0.535133 0.513796 0.799598
353 3 0.566737 0.552924 0.835755
354 4 0.511204 0.539882 0.780581
355 1 0.531093 0.536375 0.893481
356 3 0.564456 0.528288 0.941448
357 4 0.500986 0.530781 0.914599
358 1 0.599434 0.469045 0.914825
359 3 0.554547 0.431772 0.933541
360 5 0.574246 0.422182 0.847504
361 1 0.590595 0.37905 0.969323
362 3 0.580424 0.350646 0.9157
363 4 0.569993 0.39218 0.998999
364 1 0.53625 0.298041 0.937695
365 3 0.490958 0.302388 0.973051
366 4 0.549652 0.257608 0.944201
367 1 0.447806 0.287085 0.923532
368 3 0.449255 0.24958 0.872862
369 4 0.433001 0.327865 0.927486
370 1 0.383552 0.241145 0.86976
371 3 0.349642 0.2972 0.863604
372 4 0.360122 0.212162 0.885574
373 1 0.352969 0.299693 0.795494
374 3 0.357436 0.253753 0.750779
375 4 0.37369 0.336415 0.791716
376 1 0.311575 0.291143 0.71162
377 3 0.342276 0.344154 0.689425
378 4 0.276549 0.301809 0.70669
379 1 0.350831 0.307171 0.627045
380 3 0.309436 0.278303 0.593715
381 4 0.379108 0.281665 0.617461
382 1 0.305943 0.340821 0.549226
383 3 0.352803 0.360559 0.519875
384 4 0.288097 0.379166 0.548
385 1 0.340137 0.314706 0.464
386 3 0.295678 0.304736 0.428069
387 4 0.355227 0.274245 0.461023
388 1 0.327614 0.338415 0.372369
389 3 0.38348 0.340415 0.361259
390 4 0.320391 0.378732 0.358607
391 1 0.38455 0.271289 0.324927
392 3 0.355844 0.247145 0.27736
393 4 0.391821 0.231465 0.340942
394 1 0.393603 0.281288 0.230444
395 3 0.410831 0.214741 0.233396
396 4 0.419599 0.303722 0.212102
397 1 0.371314 0.188076 0.184428
398 3 0.409405 0.140514 0.167838
399 4 0.341254 0.180975 0.163785
400 1 0.446023 0.194076 0.13048
401 3 0.457168 0.259 0.149347
402 4 0.440558 0.193496 0.0924465
403 1 0.521897 0.250942 0.148921
404 3 0.518404 0.280853 0.0946234
405 4 0.556187 0.235465 0.149322
406 1 0.52078 0.355168 0.11957
407 3 0.577525 0.356182 0.125526
408 4 0.511465 0.390122 0.140764
409 1 0.590975 0.373746 0.0606934
410 3 0.589549 0.434931 0.0891185
411 4 0.584725 0.384586 0.0242361
412 1 0.653114 0.438641 0.101179
413 3 0.677352 0.450032 0.047832
414 4 0.673336 0.424091 0.13063
415 1 0.704417 0.519448 0.0660981
416 3 0.698881 0.577764 0.034295
417 5 0.684861 0.470808 0.0376703
418 1 0.632892 0.579619 0.0402252
419 3 0.619609 0.594342 0.0972007
420 4 0.606421 0.559852 0.0204827
421 1 0.586413 0.661846 0.0803608
422 3 0.533731 0.64034 0.065923
423 4 0.581494 0.701756 0.0644967
424 1 0.521374 0.610544 0.129629
425 3 0.515267 0.659469 0.171742
426 4 0.529953 0.571909 0.145844
427 1 0.449754 0.648977 0.17537
428 3 0.420621 0.589937 0.183978
429 4 0.426966 0.673961 0.154301
430 1 0.403702 0.609066 0.249085
431 3 0.386807 0.665498 0.279837
432 4 0.420883 0.590401 0.279087
433 1 0.323385 0.66002 0.258418
434 3 0.288074 0.615906 0.287569
435 4 0.299503 0.662889 0.229518
436 1 0.313096 0.634166 0.349799
437 3 0.265903 0.608023 0.373345
438 4 0.334149 0.649441 0.378199
439 1 0.228192 0.669526 0.354879
440 3 0.186203 0.62208 0.356856
441 4 0.21479 0.707814 0.341167
442 1 0.202267 0.585705 0.297578
443 3 0.181689 0.528114 0.323326
444 4 0.216144 0.574344 0.263573
445 1 0.236461 0.513391 0.359908
446 3 0.201483 0.492464 0.403097
447 4 0.271986 0.507971 0.366839
448 1 0.201887 0.562779 0.436751
449 3 0.150607 0.536809 0.45224
450 4 0.207233 0.605124 0.44701
451 1 0.120286 0.562721 0.39569
452 3 0.0865908 0.50742 0.403122
453 4 0.110353 0.588053 0.366214
454 1 0.124682 0.457568 0.367465
455 3 0.106932 0.41044 0.407851
456 4 0.14835 0.44038 0.342793
457 1 0.152342 0.42812 0.454317
458 3 0.110068 0.409339 0.4913
459 4 0.181926 0.442641 0.472833
460 1 0.0835729 0.483334 0.494102
461 3 0.0360716 0.446757 0.504937
462 4 0.0772521 0.526317 0.487897
463 1 0.0253547 0.427772 0.438603
464 3 0.000950503 0.366298 0.449963
465 4 0.0249269 0.428265 0.400344
466 1 0.0548202 0.333343 0.477512
467 3 0.0698144 0.306359 0.530685
468 4 0.0826462 0.311257 0.461824
469 1 0.0492836 0.369631 0.567067
470 3 0.0870423 0.369138 0.611756
471 5 0.0476439 0.327954 0.542048
472 1 0.137847 0.393542 0.572747
473 3 0.151748 0.457568 0.55428
474 4 0.161277 0.377891 0.546624
475 1 0.136326 0.491682 0.614984
476 3 0.177625 0.481711 0.655295
477 4 0.107739 0.503623 0.636228
478 1 0.211677 0.546171 0.635252
479 3 0.179574 0.580952 0.674962
480 4 0.229689 0.570663 0.609429
481 1 0.228525 0.593792 0.719277
482 3 0.229879 0.651614 0.685747
483 5 0.231257 0.530688 0.692771
484 1 0.212033 0.699872 0.737042
485 3 0.242663 0.758246 0.733464
486 4 0.186251 0.713611 0.761189
487 1 0.296343 0.728335 0.761514
488 3 0.332082 0.681062 0.739269
489 4 0.307915 0.723031 0.797571
490 1 0.351686 0.726306 0.686247
491 3 0.396146 0.763231 0.70649
492 4 0.344676 0.748246 0.653819
493 1 0.439275 0.703235 0.696531
494 3 0.440487 0.720509 0.63808
495 4 0.450562 0.666802 0.714347
496 1 0.502958 0.702742 0.628271
497 3 0.473778 0.649093 0.604375
498 4 0.538864 0.696626 0.633
499 1 0.488915 0.67141 0.537941
500 3 0.526412 0.706539 0.504887
501 4 0.460566 0.694308 0.524529
502 1 0.559585 0.642021 0.483693
503 3 0.541002 0.584314 0.456819
504 4 0.590143 0.634369 0.505362
505 1 0.582397 0.590227 0.402921
506 3 0.638429 0.585328 0.414982
507 4 0.588718 0.608921 0.368916
508 1 0.632464 0.51055 0.440279
509 3 0.629993 0.457307 0.40162
510 4 0.621058 0.499478 0.475661
511 1 0.687142 0.426149 0.428319
512 3 0.699071 0.418613 0.487171
513 4 0.722121 0.431134 0.418185
514 1 0.669154 0.347893 0.494002
515 3 0.677875 0.292853 0.458996
516 4 0.634912 0.34169 0.506713
517 1 0.717368 0.255666 0.501584
518 3 0.709954 0.244015 0.559735
519 5 0.703324 0.201447 0.430714
520 1 0.714778 0.163904 0.553054
521 3 0.731483 0.109559 0.5204
522 4 0.681083 0.148571 0.558334
523 1 0.7854 0.0950959 0.561011
524 3 0.79367 0.0581415 0.510392
525 4 0.773044 0.0571851 0.575975
526 1 0.816838 0.12037 0.47506
527 3 0.858375 0.164773 0.492
528 4 0.787848 0.131239 0.453541
529 1 0.877171 0.179497 0.425491
530 3 0.842811 0.184221 0.378199
531 4 0.907326 0.156803 0.417384
532 1 0.868854 0.251 0.354328
533 3 0.896823 0.306591 0.373846
534 5 0.878977 0.208813 0.289893
535 1 0.872371 0.354762 0.323276
536 3 0.824585 0.356907 0.290997
537 4 0.899864 0.360356 0.298404
538 1 0.813939 0.435076 0.303583
539 3 0.8459 0.488812 0.32255
540 4 0.783048 0.431656 0.323701
541 1 0.818311 0.540374 0.27716
542 3 0.774374 0.544519 0.238976
543 4 0.844403 0.547707 0.251112
544 1 0.740584 0.596081 0.279262
545 3 0.753059 0.654948 0.308738
546 4 0.716085 0.577126 0.303183
547 1 0.716109 0.701206 0.2662
548 3 0.661573 0.691293 0.251738
549 4 0.72837 0.721639 0.234397
550 1 0.638476 0.735639 0.306136
551 3 0.649146 0.802881 0.314343
552 4 0.633534 0.722248 0.342693
553 1 0.590001 0.827604 0.290697
554 3 0.538293 0.798041 0.290547
555 4 0.604472 0.850125 0.260996
ITEM: TIMESTEP
1000
ITEM: NUMBER OF ATOMS
555
ITEM: BOX BOUNDS ss ss ss
10.5336 53.1929
9.15621 45.555
8.9388 47.7666
ITEM: ATOMS id type xs ys zs
1 1 0.574661 0.964882 0.338007
2 3 0.620539 0.929209 0.352973
3 4 0.561833 0.929618 0.32223
4 1 0.644711 0.969047 0.397574
5 3 0.622936 0.957835 0.454164
6 4 0.658328 1.00721 0.404652
7 1 0.646385 0.894751 0.463763
8 3 0.692239 0.916913 0.493761
9 4 0.65567 0.854155 0.457926
10 1 0.66853 0.930756 0.551663
11 3 0.682869 0.903669 0.604293
12 4 0.647599 0.961227 0.566875
13 1 0.672478 0.837865 0.594372
14 3 0.697407 0.793565 0.556698
15 4 0.638813 0.821913 0.594059
16 1 0.733859 0.76411 0.597165
17 3 0.738238 0.737289 0.655398
18 4 0.769137 0.776142 0.596906
19 1 0.717552 0.676178 0.644347
20 3 0.756087 0.640567 0.615885
21 4 0.685202 0.658325 0.641284
22 1 0.784816 0.611299 0.662823
23 3 0.791026 0.608528 0.72494
24 4 0.815244 0.634292 0.658701
25 1 0.773051 0.544644 0.735757
26 3 0.770438 0.483856 0.712188
27 4 0.738741 0.548468 0.74338
28 1 0.809817 0.453462 0.750137
29 3 0.824258 0.451712 0.810244
30 4 0.842436 0.446758 0.732966
31 1 0.801988 0.387248 0.823489
32 3 0.85388 0.369663 0.857454
33 4 0.782317 0.355033 0.82652
34 1 0.887415 0.364264 0.807948
35 3 0.902241 0.300701 0.81068
36 5 0.920053 0.375958 0.820502
37 1 0.892159 0.28001 0.751108
38 3 0.942781 0.255816 0.740782
39 5 0.863943 0.308097 0.75042
40 1 0.958613 0.291243 0.688139
41 3 0.959837 0.35841 0.697435
42 5 0.977281 0.254381 0.692594
43 1 0.995475 0.376069 0.652125
44 3 0.980815 0.393525 0.594572
45 4 1.03058 0.374032 0.645548
46 1 0.934783 0.43207 0.608302
47 3 0.948599 0.496624 0.602704
48 4 0.904452 0.437157 0.630569
49 1 0.96798 0.492902 0.542519
50 3 0.929184 0.512615 0.502384
51 4 0.993894 0.488368 0.51499
52 1 0.905793 0.569256 0.530702
53 3 0.936603 0.622409 0.537307
54 4 0.880995 0.573113 0.556491
55 1 0.919104 0.659058 0.485669
56 3 0.868828 0.681445 0.47728
57 4 0.92655 0.652682 0.4479
58 1 0.877585 0.749645 0.499635
59 3 0.920686 0.783122 0.473977
60 4 0.8724 0.772179 0.530483
61 1 0.895959 0.816612 0.424445
62 3 0.8497 0.854856 0.442238
63 5 0.861012 0.809835 0.415525
64 1 0.860845 0.90622 0.401172
65 3 0.835065 0.894703 0.34632
66 4 0.880991 0.939243 0.395693
67 1 0.779123 0.900018 0.364858
68 3 0.74399 0.869975 0.402901
69 5 0.788955 0.872071 0.335507
70 1 0.729163 0.81508 0.361968
71 3 0.732745 0.751028 0.348429
72 5 0.705385 0.795172 0.384877
73 1 0.790306 0.743218 0.338538
74 3 0.824433 0.733842 0.386736
75 4 0.808509 0.753219 0.307988
76 1 0.814437 0.666535 0.397163
77 3 0.812525 0.611829 0.361748
78 4 0.795419 0.660926 0.430059
79 1 0.859814 0.578066 0.386309
80 3 0.872135 0.569814 0.448331
81 4 0.887229 0.575775 0.36062
82 1 0.877293 0.499527 0.446066
83 3 0.891529 0.449204 0.404842
84 4 0.847333 0.486748 0.46276
85 1 0.93258 0.420726 0.441906
86 3 0.950785 0.404662 0.50089
87 4 0.96614 0.427388 0.42972
88 1 0.920928 0.346589 0.50903
89 3 0.921483 0.28985 0.478581
90 4 0.891448 0.350754 0.531933
91 1 0.943643 0.246352 0.520277
92 3 0.95875 0.235779 0.578181
93 4 0.976685 0.243961 0.504268
94 1 0.927903 0.177929 0.58944
95 3 0.919655 0.205188 0.643617
96 4 0.959781 0.16393 0.602064
97 1 0.86506 0.234222 0.636781
98 3 0.818531 0.201411 0.618532
99 4 0.860182 0.273077 0.627567
100 1 0.790172 0.204125 0.675669
101 3 0.742399 0.22791 0.650327
102 5 0.758409 0.191384 0.666064
103 1 0.73932 0.286116 0.682655
104 3 0.778159 0.335873 0.683315
105 4 0.720501 0.284789 0.7138
106 1 0.748001 0.385538 0.653667
107 3 0.706769 0.393203 0.613085
108 4 0.776823 0.382968 0.630469
109 1 0.701507 0.464097 0.615989
110 3 0.733559 0.518008 0.620184
111 4 0.670868 0.470745 0.634593
112 1 0.733658 0.537753 0.555998
113 3 0.708655 0.536412 0.502778
114 4 0.765172 0.529507 0.542343
115 1 0.690156 0.599848 0.49843
116 3 0.699412 0.659225 0.527964
117 5 0.697047 0.638961 0.48929
118 1 0.667558 0.698577 0.489459
119 3 0.61393 0.688524 0.469625
120 4 0.683235 0.722036 0.463527
121 1 0.587685 0.747948 0.485251
122 3 0.590193 0.802847 0.518395
123 5 0.599618 0.73332 0.452701
124 1 0.535118 0.806565 0.537964
125 3 0.532715 0.770287 0.590827
126 4 0.50046 0.814916 0.52701
127 1 0.533787 0.825016 0.634311
128 3 0.490277 0.798424 0.661592
129 4 0.541579 0.864383 0.640217
130 1 0.446118 0.83169 0.631659
131 3 0.420717 0.822322 0.578679
132 4 0.424411 0.867435 0.631143
133 1 0.40771 0.756697 0.576367
134 3 0.353216 0.763718 0.591834
135 5 0.384698 0.768611 0.605122
136 1 0.328429 0.770544 0.533454
137 3 0.316478 0.736238 0.484004
138 4 0.333326 0.805616 0.512777
139 1 0.269889 0.705006 0.495511
140 3 0.240323 0.708058 0.442391
141 4 0.236229 0.701406 0.510331
142 1 0.262121 0.766395 0.41718
143 3 0.295766 0.789881 0.374265
144 4 0.245818 0.803559 0.41897
145 1 0.348252 0.764994 0.391397
146 3 0.350415 0.716859 0.348295
147 4 0.374156 0.751654 0.416091
148 1 0.379773 0.745485 0.300788
149 3 0.433963 0.759172 0.307077
150 4 0.37372 0.771074 0.270986
151 1 0.461642 0.698749 0.306013
152 3 0.470822 0.667037 0.253523
153 4 0.46251 0.666212 0.331228
154 1 0.517145 0.696689 0.228695
155 3 0.561048 0.687186 0.263927
156 4 0.521592 0.734359 0.21286
157 1 0.589228 0.637646 0.234214
158 3 0.588704 0.610678 0.177968
159 4 0.582092 0.608325 0.262763
160 1 0.647254 0.599604 0.171109
161 3 0.693298 0.581289 0.204766
162 4 0.665261 0.629279 0.149493
163 1 0.694351 0.514787 0.190607
164 3 0.714555 0.494089 0.136913
165 4 0.676428 0.478356 0.19968
166 1 0.770202 0.519669 0.14467
167 3 0.790534 0.464647 0.118709
168 5 0.756558 0.521018 0.183008
169 1 0.790705 0.423633 0.17274
170 3 0.760465 0.406047 0.224154
171 4 0.82393 0.418422 0.186945
172 1 0.734923 0.349689 0.20041
173 3 0.738287 0.290412 0.17071
174 4 0.700392 0.358016 0.187525
175 1 0.775405 0.258464 0.206975
176 3 0.798473 0.225707 0.255057
177 4 0.808617 0.262107 0.192805
178 1 0.751696 0.198093 0.282195
179 3 0.749119 0.143638 0.248987
180 4 0.716359 0.201446 0.294491
181 1 0.783159 0.100359 0.28283
182 3 0.766869 0.0439317 0.310618
183 4 0.818392 0.0960841 0.28535
184 1 0.729817 0.0704074 0.354932
185 3 0.686152 0.108257 0.341733
186 5 0.742961 0.111104 0.362531
187 1 0.654335 0.10388 0.397431
188 3 0.673659 0.157061 0.427208
189 4 0.642966 0.0840034 0.42775
190 1 0.65161 0.207275 0.390203
191 3 0.603473 0.214578 0.358127
192 5 0.633682 0.181703 0.366476
193 1 0.588425 0.278518 0.371399
194 3 0.611032 0.338848 0.374757
195 4 0.558747 0.279857 0.397594
196 1 0.587383 0.369284 0.322934
197 3 0.530912 0.378861 0.315669
198 4 0.595028 0.370816 0.285053
199 1 0.519348 0.413467 0.368295
200 3 0.535121 0.462948 0.405248
201 4 0.510011 0.383205 0.394456
202 1 0.485252 0.499836 0.407877
203 3 0.455791 0.466799 0.452632
204 4 0.458937 0.52252 0.393864
205 1 0.488739 0.485559 0.504398
206 3 0.485613 0.549047 0.527196
207 4 0.519956 0.466464 0.517711
208 1 0.452521 0.532054 0.579852
209 3 0.433627 0.48669 0.620837
210 5 0.482826 0.527216 0.600144
211 1 0.40742 0.530556 0.662526
212 3 0.384548 0.59179 0.669912
213 4 0.432162 0.529218 0.691698
214 1 0.339427 0.571901 0.710897
215 3 0.34137 0.528303 0.757685
216 4 0.309817 0.580972 0.692719
217 1 0.323146 0.570952 0.806259
218 3 0.267656 0.578766 0.800675
219 4 0.343201 0.594666 0.828752
220 1 0.25218 0.573889 0.860644
221 3 0.211558 0.533469 0.839982
222 4 0.234286 0.610044 0.856417
223 1 0.241433 0.477731 0.823434
224 3 0.275033 0.473226 0.77302
225 4 0.211612 0.481388 0.803813
226 1 0.324996 0.454178 0.802281
227 3 0.320676 0.398297 0.767217
228 4 0.348902 0.440128 0.827875
229 1 0.323882 0.425987 0.707979
230 3 0.36699 0.459211 0.680855
231 4 0.294835 0.440374 0.688353
232 1 0.386754 0.409013 0.642394
233 3 0.346396 0.385393 0.603247
234 4 0.407313 0.375109 0.652186
235 1 0.363772 0.418151 0.549046
236 3 0.415393 0.421935 0.52148
237 4 0.347077 0.455555 0.545159
238 1 0.39999 0.39449 0.463633
239 3 0.357494 0.383511 0.4224
240 4 0.416162 0.356741 0.465878
241 1 0.385316 0.407812 0.369524
242 3 0.433679 0.407481 0.337813
243 4 0.375314 0.44576 0.358464
244 1 0.440313 0.339922 0.328132
245 3 0.417731 0.330444 0.271701
246 4 0.442992 0.300481 0.342513
247 1 0.461666 0.355723 0.235894
248 3 0.476739 0.309258 0.195597
249 4 0.473714 0.39378 0.221887
250 1 0.525964 0.284109 0.222704
251 3 0.548143 0.275364 0.280836
252 4 0.549979 0.299468 0.198223
253 1 0.5646 0.209124 0.274861
254 3 0.602323 0.186853 0.233509
255 4 0.539968 0.185473 0.291383
256 1 0.629111 0.138196 0.268368
257 3 0.602469 0.0872163 0.241406
258 5 0.6344 0.112645 0.298545
259 1 0.615912 0.0359096 0.281689
260 3 0.571641 -0.000199174 0.297752
261 4 0.645758 0.0147321 0.296188
262 1 0.545343 0.0420459 0.339643
263 3 0.525777 0.104055 0.338183
264 4 0.552781 0.0380654 0.378977
265 1 0.469737 0.0902372 0.324643
266 3 0.438101 0.066932 0.3714
267 4 0.447044 0.0808086 0.294007
268 1 0.429871 0.123608 0.406166
269 3 0.377528 0.131082 0.38385
270 4 0.437684 0.161205 0.421413
271 1 0.348288 0.090686 0.426067
272 3 0.349384 0.0739881 0.486528
273 4 0.341225 0.054395 0.406304
274 1 0.293788 0.0864341 0.503131
275 3 0.248901 0.0647834 0.472192
276 5 0.321035 0.110323 0.516916
277 1 0.205445 0.080642 0.512784
278 3 0.194488 0.134485 0.480348
279 4 0.188669 0.085795 0.547624
280 1 0.169379 0.106155 0.428127
281 3 0.119419 0.119732 0.455189
282 4 0.163476 0.0790287 0.400248
283 1 0.107702 0.180137 0.425867
284 3 0.0671901 0.178996 0.382465
285 4 0.115967 0.215968 0.444774
286 1 0.0995681 0.209054 0.33316
287 3 0.150251 0.235752 0.319298
288 5 0.107459 0.250859 0.324659
289 1 0.138946 0.257599 0.258234
290 3 0.107149 0.3098 0.24741
291 4 0.139546 0.235491 0.224609
292 1 0.148726 0.356309 0.231629
293 3 0.194315 0.353413 0.194698
294 4 0.156975 0.382588 0.261011
295 1 0.177201 0.398659 0.14861
296 3 0.17572 0.462041 0.16053
297 4 0.158332 0.393707 0.116255
298 1 0.2312 0.481057 0.153166
299 3 0.281177 0.466319 0.129198
300 4 0.237965 0.486138 0.190366
301 1 0.2921 0.525616 0.0960195
302 3 0.325318 0.4893 0.0575789
303 4 0.321914 0.529071 0.1209
304 1 0.28082 0.455415 0.0274765
305 3 0.310385 0.399093 0.0281734
306 5 0.309044 0.446621 0.0016792
307 1 0.289489 0.369826 0.0823467
308 3 0.240082 0.366554 0.110502
309 5 0.272349 0.375488 0.0477446
310 1 0.240457 0.302605 0.134491
311 3 0.277309 0.274902 0.174182
312 4 0.225625 0.2733 0.11441
313 1 0.257603 0.291235 0.229427
314 3 0.2097 0.270163 0.255961
315 4 0.265005 0.324722 0.249823
316 1 0.23009 0.217122 0.290814
317 3 0.253407 0.247402 0.339551
318 4 0.245547 0.178952 0.291607
319 1 0.20964 0.256308 0.379701
320 3 0.203878 0.195563 0.402577
321 4 0.179946 0.277953 0.382018
322 1 0.229233 0.206223 0.460871
323 3 0.243204 0.250348 0.504024
324 4 0.258576 0.182561 0.451969
325 1 0.235886 0.210556 0.557495
326 3 0.248061 0.149492 0.573559
327 4 0.205248 0.217408 0.577094
328 1 0.292371 0.158495 0.614212
329 3 0.29099 0.199591 0.661129
330 4 0.32415 0.150204 0.598251
331 1 0.316167 0.159295 0.706613
332 3 0.361362 0.121094 0.712165
333 4 0.292196 0.141781 0.731466
334 1 0.396593 0.162966 0.746993
335 3 0.381984 0.171046 0.8056
336 4 0.419155 0.195004 0.737574
337 1 0.409298 0.11759 0.83449
338 3 0.462003 0.105153 0.850731
339 4 0.39775 0.0771138 0.837283
340 1 0.47048 0.150559 0.897652
341 3 0.522485 0.161787 0.878578
342 4 0.480944 0.118077 0.916608
343 1 0.514244 0.203934 0.829281
344 3 0.508165 0.263758 0.852298
345 4 0.499805 0.200906 0.792311
346 1 0.558337 0.292503 0.829823
347 3 0.531704 0.322353 0.783995
348 4 0.591227 0.295109 0.815308
349 1 0.508064 0.375956 0.813033
350 3 0.552211 0.415617 0.810678
351 4 0.478509 0.378801 0.833818
352 1 0.524127 0.475816 0.797821
353 3 0.546457 0.51702 0.837936
354 4 0.502946 0.499057 0.775595
355 1 0.524738 0.497919 0.894528
356 3 0.573761 0.498045 0.924758
357 4 0.496653 0.488721 0.915868
358 1 0.58543 0.430595 0.916476