LAMMPS protain data file

         153  atoms
         202  bonds
           0  angles
           0  dihedrals
           0  impropers

           5  atom types
           5  bond types
           0  angle types
           0  dihedral types
           0  improper types

-200.0	200.0	xlo xhi
-200.0	200.0	ylo yhi
-200.0	200.0	zlo zhi

Masses

           1	27.0
           2	14.0
           3	28.0
           4	60.0
           5	60.0

Atoms

           1	1	1	1	0.0	-9.44499969	12.10000038	-0.221
           2	1	1	3	0.0	-10.19299984	9.87300014	-0.249
           3	1	1	4	0.0	-7.94500017	12.42199993	-0.065
           4	1	2	1	0.0	-9.72700024	9.49800014	-3.03299999
           5	1	2	3	0.0	-7.6170001	9.97200012	-4.04400015
           6	1	2	4	0.0	-10.71399975	9.74300003	-4.18300009
           7	1	3	1	0.0	-6.59299994	7.3579998	-3.523
           8	1	3	3	0.0	-7.78000021	6.12400007	-5.19799995
           9	1	3	4	0.0	-6.05600023	6.69500017	-2.24300003
          10	1	4	1	0.0	-5.50699997	4.88000011	-6.24399996
          11	1	4	3	0.0	-4.23899984	3.59200001	-4.67199993
          12	1	4	4	0.0	-4.83500004	5.52799988	-7.46199989
          13	1	5	1	0.0	-4.26399994	1.24100006	-6.21500015
          14	1	5	3	0.0	-2.22399998	2.4519999	-6.58199978
          15	1	5	4	0.0	-4.671	0.184	-7.24599981
          16	1	6	1	0.0	-0.537	0.35800001	-5.85300016
          17	1	6	3	0.0	-0.70300001	-1.22099996	-7.6329999
          18	1	6	4	0.0	0.124	-0.412	-4.69700003
          19	1	7	1	0.0	1.597	-0.21600001	-9.01099968
          20	1	7	3	0.0	3.15700006	-1.89499998	-9.66499996
          21	1	7	4	0.0	1.96399999	0.91000003	-9.99800014
          22	1	8	1	0.0	4.62599993	-1.87699997	-7.26200008
          23	1	8	3	0.0	3.67199993	-1.78799999	-5.0630002
          24	1	8	4	0.0	5.95499992	-1.11300004	-7.41499996
          25	1	9	1	0.0	5.12099981	-3.95900011	-4.09299994
          26	1	9	3	0.0	6.92500019	-2.44400001	-3.63400006
          27	1	9	4	0.0	5.60699987	-5.41099977	-4.03100014
          28	1	10	1	0.0	6.454	-2.35700011	-0.912
          29	1	10	3	0.0	6.95599985	-0.054	-0.48699999
          30	1	10	5	0.0	5.65799999	-2.45128255	0.08809783
          31	1	11	1	0.0	4.47100019	0.87400001	-1.46399999
          32	1	11	3	0.0	2.58599997	0.13500001	-0.20999999
          33	1	11	4	0.0	3.92400002	1.21399999	-2.852
          34	1	12	1	0.0	2.1789999	2.63700008	1.04499996
          35	1	12	3	0.0	1.62300003	4.25600004	-0.64099997
          36	1	12	4	0.0	2.74000001	2.9690001	2.43799996
          37	1	13	1	0.0	-0.61799997	5.2420001	0.77399999
          38	1	13	3	0.0	-1.51400006	5.79099989	-1.40600002
          39	1	13	4	0.0	0.15700001	6.58500004	0.755
          40	1	14	1	0.0	-2.55699992	3.2349999	-1.86199999
          41	1	14	3	0.0	-3.47099996	1.579	-0.40799999
          42	1	14	4	0.0	-1.56599998	2.59500003	-2.8269999
          43	1	15	1	0.0	-5.73799992	1.12300003	-2.02399993
          44	1	15	3	0.0	-4.46299982	-0.56999999	-3.10500002
          45	1	15	4	0.0	-6.9000001	1.47399998	-2.9690001
          46	1	16	1	0.0	-4.9000001	-2.53500009	-1.23399997
          47	1	16	3	0.0	-6.30100012	-4.421	-1.65400004
          48	1	16	4	0.0	-3.67799997	-2.5250001	-0.30199999
          49	1	17	1	0.0	-7.69399977	-4.15700006	0.71399999
          50	1	17	3	0.0	-9.43700027	-2.52399993	1.06900001
          51	1	17	4	0.0	-7.74700022	-4.54699993	2.19300008
          52	1	18	1	0.0	-10.46500015	-2.76900005	-1.49899995
          53	1	18	3	0.0	-9.12899971	-0.80000001	-1.65900004
          54	1	18	5	0.0	-9.31299973	-2.85751047	-1.96905514
          55	1	19	1	0.0	-11.10900021	0.94099998	-0.824
          56	1	19	3	0.0	-10.26299953	2.523	0.74400002
          57	1	19	4	0.0	-12.49300003	1.60800004	-0.84500003
          58	1	20	1	0.0	-9.01799965	0.69099998	2.398
          59	1	20	3	0.0	-6.96600008	0.092	1.28999996
          60	1	20	4	0.0	-9.12100029	-0.41800001	3.44799995
          61	1	21	1	0.0	-5.69399977	2.50399995	2.0250001
          62	1	21	3	0.0	-4.94899988	1.55499995	4.09899998
          63	1	21	4	0.0	-5.546	4.01999998	2.26200008
          64	1	22	1	0.0	-2.48399997	0.74800003	3.0999999
          65	1	22	3	0.0	-0.89300001	2.55800009	3.296
          66	1	22	4	0.0	-1.546	-0.068	2.21300006
          67	1	23	1	0.0	-1.84099996	3.15700006	5.98500013
          68	1	23	3	0.0	0.38999999	2.23699999	5.99800014
          69	1	23	5	0.0	-2.26300001	3.90385526	6.34724263
          70	1	24	1	0.0	1.57099998	4.60200024	6.8829999
          71	1	24	3	0.0	1.44000006	3.102	8.75599957
          72	1	24	4	0.0	1.81500006	6.03100014	7.3920002
          73	1	25	1	0.0	4.03999996	2.09899998	8.36800003
          74	1	25	3	0.0	4.15700006	-0.28799999	8.36999989
          75	1	25	5	0.0	3.3900001	1.81949362	8.84436575
          76	1	26	1	0.0	2.30699992	-0.61799997	6.24499989
          77	1	26	3	0.0	2.56599998	0.667	4.26300001
          78	1	26	4	0.0	0.80900002	-0.889	6.49800014
          79	1	27	1	0.0	3.00399995	-1.52600002	2.56299996
          80	1	27	3	0.0	1.94400001	-3.66199994	2.47099996
          81	1	27	4	0.0	4.49100018	-1.59000003	2.24399996
          82	1	28	1	0.0	1.09099996	-3.35700011	-0.189
          83	1	28	3	0.0	2.89100003	-3.70799994	-1.68099999
          84	1	28	4	0.0	0.095	-2.62700009	-1.09800005
          85	1	29	1	0.0	2.5480001	-6.43900013	-1.79299998
          86	1	29	3	0.0	0.449	-7.23400021	-2.6400001
          87	1	29	4	0.0	3.07299995	-7.67700005	-1.04200006
          88	1	30	1	0.0	1.09399998	-6.68100023	-5.29300022
          89	1	30	3	0.0	2.579	-8.54599953	-5.35900021
          90	1	30	4	0.0	1.53299999	-5.88199997	-6.53399992
          91	1	31	1	0.0	0.57700002	-10.44299984	-5.80299997
          92	1	31	3	0.0	1.63699996	-9.92599964	-7.87300014
          93	1	31	5	0.0	0.38699999	-10.96419435	-4.90328273
          94	1	32	1	0.0	3.25900006	-12.10999966	-7.97399998
          95	1	32	3	0.0	4.16200018	-14.11800003	-8.90999985
          96	1	32	4	0.0	4.64900017	-11.82800007	-7.40100002
          97	1	33	1	0.0	1.56299996	-15.36699963	-8.76000023
          98	1	33	3	0.0	-0.329	-16.46800041	-7.75099993
          99	1	33	4	0.0	2.352	-16.07600021	-7.62200022
         100	1	34	1	0.0	-2.24699998	-14.9289999	-8.90799999
         101	1	34	3	0.0	-3.95499992	-14.3380003	-7.34499979
         102	1	34	5	0.0	-0.80900002	-14.40818169	-9.02227216
         103	1	35	1	0.0	-2.20000005	-13.54699993	-5.32800007
         104	1	35	3	0.0	-2.66499996	-11.50399971	-6.53000021
         105	1	35	4	0.0	-0.94499999	-13.48799992	-4.44899988
         106	1	36	1	0.0	-4.29899979	-10.4989996	-4.42999983
         107	1	36	3	0.0	-2.477	-9.83199978	-3.00600004
         108	1	36	4	0.0	-5.69199991	-10.7159996	-3.81800008
         109	1	37	1	0.0	-3.19099998	-7.10599995	-3.05299997
         110	1	37	3	0.0	-4.30800009	-7.55499983	-0.986
         111	1	37	4	0.0	-3.93199992	-5.8039999	-3.39700007
         112	1	38	1	0.0	-1.94799995	-7.66300011	0.55199999
         113	1	38	3	0.0	0.005	-6.37200022	1.02400005
         114	1	38	4	0.0	-1.26199996	-9.01599979	0.78200001
         115	1	39	1	0.0	-1.25100005	-4.73099995	2.9230001
         116	1	39	3	0.0	-1.55799997	-5.82600021	5.00600004
         117	1	39	4	0.0	-2.27600002	-3.63400006	3.21199989
         118	1	40	1	0.0	1.12600005	-5.70900011	5.76300001
         119	1	40	3	0.0	2.49099994	-3.75399995	5.72599983
         120	1	40	4	0.0	1.91600001	-7.00600004	5.52099991
         121	1	41	1	0.0	2.90199995	-3.7190001	8.5
         122	1	41	3	0.0	4.80800009	-4.90100002	7.63600016
         123	1	41	4	0.0	2.6329999	-3.86100006	10.00899982
         124	1	42	1	0.0	6.61600018	-2.77099991	8.21500015
         125	1	42	3	0.0	7.05000019	-0.50400001	8.81900024
         126	1	42	5	0.0	5.17299986	-3.44609809	7.70144516
         127	1	43	1	0.0	7.53100014	0.30000001	6.08900023
         128	1	43	3	0.0	7.86199999	-0.93900001	4.06699991
         129	1	43	4	0.0	8.83300018	0.89700001	6.63399982
         130	1	44	1	0.0	7.32000017	1.16100001	2.34299994
         131	1	44	3	0.0	7.26900005	3.55200005	2.42000008
         132	1	44	5	0.0	7.36600018	0.15471204	1.18572867
         133	1	45	1	0.0	7.82200003	3.84599996	-0.31999999
         134	1	45	3	0.0	5.47599983	3.7750001	-0.82800001
         135	1	45	4	0.0	8.55200005	3.51399994	-1.63300002
         136	1	46	1	0.0	5.04500008	6.45800018	-0.83499998
         137	1	46	3	0.0	5.74700022	6.96299982	-3.07999992
         138	1	46	4	0.0	5.11800003	7.8499999	-0.22400001
         139	1	47	1	0.0	3.28800011	6.16300011	-4.204
         140	1	47	3	0.0	2.63800001	8.47500038	-4.28299999
         141	1	47	4	0.0	1.88900006	5.53999996	-4.34200001
         142	1	48	1	0.0	4.36100006	9.20600033	-6.39799976
         143	1	48	3	0.0	2.46000004	8.68700027	-7.77099991
         144	1	48	4	0.0	5.71099997	9.14599991	-7.1170001
         145	1	49	1	0.0	1.75300002	11.28100014	-8.30700016
         146	1	49	3	0.0	2.41499996	11.83300018	-10.54699993
         147	1	49	4	0.0	1.48800004	12.73799992	-7.92600012
         148	1	50	1	0.0	1.505	9.25899982	-11.50500011
         149	1	50	3	0.0	3.81699991	9.18999958	-10.80200005
         150	1	50	4	0.0	1.35099995	10.13099957	-12.75399971
         151	1	51	1	0.0	4.38999987	6.82399988	-12.29399967
         152	1	51	3	0.0	5.60699987	8.07400036	-13.90200043
         153	1	51	4	0.0	4.30100012	5.29300022	-12.13700008

Bond Coeffs

           1	200.0	3.77
           2	200.0	2.41
           3	200.0	2.50
           4	200.0	1.54
           5	200.0	1.54
Bonds

           1	2	1	2
           2	4	1	3
           3	1	1	4
           4	3	2	4
           5	2	4	5
           6	4	4	6
           7	1	4	7
           8	3	5	7
           9	2	7	8
          10	4	7	9
          11	1	7	10
          12	3	8	10
          13	2	10	11
          14	4	10	12
          15	1	10	13
          16	3	11	13
          17	2	13	14
          18	4	13	15
          19	1	13	16
          20	3	14	16
          21	2	16	17
          22	4	16	18
          23	1	16	19
          24	3	17	19
          25	2	19	20
          26	4	19	21
          27	1	19	22
          28	3	20	22
          29	2	22	23
          30	4	22	24
          31	1	22	25
          32	3	23	25
          33	2	25	26
          34	4	25	27
          35	1	25	28
          36	3	26	28
          37	2	28	29
          38	5	28	30
          39	1	28	31
          40	3	29	31
          41	2	31	32
          42	4	31	33
          43	1	31	34
          44	3	32	34
          45	2	34	35
          46	4	34	36
          47	1	34	37
          48	3	35	37
          49	2	37	38
          50	4	37	39
          51	1	37	40
          52	3	38	40
          53	2	40	41
          54	4	40	42
          55	1	40	43
          56	3	41	43
          57	2	43	44
          58	4	43	45
          59	1	43	46
          60	3	44	46
          61	2	46	47
          62	4	46	48
          63	1	46	49
          64	3	47	49
          65	2	49	50
          66	4	49	51
          67	1	49	52
          68	3	50	52
          69	2	52	53
          70	5	52	54
          71	1	52	55
          72	3	53	55
          73	2	55	56
          74	4	55	57
          75	1	55	58
          76	3	56	58
          77	2	58	59
          78	4	58	60
          79	1	58	61
          80	3	59	61
          81	2	61	62
          82	4	61	63
          83	1	61	64
          84	3	62	64
          85	2	64	65
          86	4	64	66
          87	1	64	67
          88	3	65	67
          89	2	67	68
          90	5	67	69
          91	1	67	70
          92	3	68	70
          93	2	70	71
          94	4	70	72
          95	1	70	73
          96	3	71	73
          97	2	73	74
          98	5	73	75
          99	1	73	76
         100	3	74	76
         101	2	76	77
         102	4	76	78
         103	1	76	79
         104	3	77	79
         105	2	79	80
         106	4	79	81
         107	1	79	82
         108	3	80	82
         109	2	82	83
         110	4	82	84
         111	1	82	85
         112	3	83	85
         113	2	85	86
         114	4	85	87
         115	1	85	88
         116	3	86	88
         117	2	88	89
         118	4	88	90
         119	1	88	91
         120	3	89	91
         121	2	91	92
         122	5	91	93
         123	1	91	94
         124	3	92	94
         125	2	94	95
         126	4	94	96
         127	1	94	97
         128	3	95	97
         129	2	97	98
         130	4	97	99
         131	1	97	100
         132	3	98	100
         133	2	100	101
         134	5	100	102
         135	1	100	103
         136	3	101	103
         137	2	103	104
         138	4	103	105
         139	1	103	106
         140	3	104	106
         141	2	106	107
         142	4	106	108
         143	1	106	109
         144	3	107	109
         145	2	109	110
         146	4	109	111
         147	1	109	112
         148	3	110	112
         149	2	112	113
         150	4	112	114
         151	1	112	115
         152	3	113	115
         153	2	115	116
         154	4	115	117
         155	1	115	118
         156	3	116	118
         157	2	118	119
         158	4	118	120
         159	1	118	121
         160	3	119	121
         161	2	121	122
         162	4	121	123
         163	1	121	124
         164	3	122	124
         165	2	124	125
         166	5	124	126
         167	1	124	127
         168	3	125	127
         169	2	127	128
         170	4	127	129
         171	1	127	130
         172	3	128	130
         173	2	130	131
         174	5	130	132
         175	1	130	133
         176	3	131	133
         177	2	133	134
         178	4	133	135
         179	1	133	136
         180	3	134	136
         181	2	136	137
         182	4	136	138
         183	1	136	139
         184	3	137	139
         185	2	139	140
         186	4	139	141
         187	1	139	142
         188	3	140	142
         189	2	142	143
         190	4	142	144
         191	1	142	145
         192	3	143	145
         193	2	145	146
         194	4	145	147
         195	1	145	148
         196	3	146	148
         197	2	148	149
         198	4	148	150
         199	1	148	151
         200	3	149	151
         201	2	151	152
         202	4	151	153

