ITEM: TIMESTEP
0
ITEM: NUMBER OF ATOMS
153
ITEM: BOX BOUNDS ss ss ss
-12.533 8.873
-16.508 12.778
-13.942 10.049
ITEM: ATOMS id type xs ys zs
1 1 0.144259 0.976849 0.571923
2 3 0.109315 0.900806 0.570756
3 4 0.214332 0.987844 0.578425
4 1 0.131085 0.888001 0.454712
5 3 0.229655 0.904186 0.412571
6 4 0.0849762 0.896367 0.406778
7 1 0.277492 0.814929 0.434288
8 3 0.222041 0.772792 0.36447
9 4 0.302579 0.79229 0.487641
10 1 0.328226 0.730315 0.32087
11 3 0.387461 0.686335 0.386395
12 4 0.359619 0.752441 0.270101
13 1 0.386294 0.606058 0.322079
14 3 0.481594 0.647408 0.306782
15 4 0.36728 0.569965 0.279105
16 1 0.560404 0.575907 0.337168
17 3 0.552649 0.52199 0.262974
18 4 0.591283 0.549614 0.385353
19 1 0.660095 0.556307 0.205535
20 3 0.732972 0.498976 0.178275
21 4 0.67724 0.594755 0.164395
22 1 0.801598 0.49959 0.278438
23 3 0.757031 0.502629 0.370097
24 4 0.863683 0.525678 0.27206
25 1 0.824722 0.428498 0.410529
26 3 0.908997 0.480229 0.429661
27 4 0.847426 0.378918 0.413113
28 1 0.886994 0.4832 0.54312
29 3 0.910446 0.561838 0.560835
30 5 0.849808 0.479981 0.584807
31 1 0.794357 0.593526 0.520112
32 3 0.706297 0.568292 0.572381
33 4 0.768803 0.605136 0.462257
34 1 0.687284 0.653725 0.624693
35 3 0.66131 0.709008 0.554416
36 4 0.713492 0.665062 0.682756
37 1 0.55662 0.742676 0.613397
38 3 0.514762 0.761422 0.522529
39 4 0.592824 0.788534 0.612605
40 1 0.466038 0.674145 0.503522
41 3 0.423339 0.617599 0.564128
42 4 0.512333 0.652291 0.463299
43 1 0.317434 0.602028 0.49677
44 3 0.376997 0.544219 0.451711
45 4 0.263151 0.614014 0.45738
46 1 0.356582 0.477122 0.529699
47 3 0.291133 0.412723 0.512192
48 4 0.413669 0.477464 0.568547
49 1 0.226058 0.421737 0.610896
50 3 0.144632 0.477498 0.625693
51 4 0.223582 0.40842 0.672544
52 1 0.0966084 0.469132 0.518653
53 3 0.159021 0.536366 0.511984
54 5 0.150425 0.46611 0.49906
55 1 0.0665234 0.595814 0.546788
56 3 0.106045 0.649833 0.612146
57 4 0.00186863 0.618589 0.545913
58 1 0.164206 0.587277 0.681089
59 3 0.260067 0.566824 0.634905
60 4 0.159395 0.549409 0.724855
61 1 0.31949 0.649184 0.665541
62 3 0.354293 0.616779 0.75199
63 4 0.326404 0.700949 0.67542
64 1 0.469448 0.589224 0.71035
65 3 0.543773 0.651028 0.718519
66 4 0.513267 0.56136 0.673378
67 1 0.499486 0.671481 0.830603
68 3 0.603709 0.640067 0.831145
69 5 0.479772 0.696983 0.845702
70 1 0.658881 0.720822 0.868034
71 3 0.652761 0.669603 0.946105
72 4 0.670279 0.769617 0.88925
73 1 0.774222 0.635355 0.929932
74 3 0.779688 0.553848 0.930015
75 5 0.743857 0.625811 0.949788
76 1 0.693264 0.54258 0.841441
77 3 0.705363 0.586458 0.758826
78 4 0.623283 0.533327 0.851986
79 1 0.725825 0.511576 0.687966
80 3 0.676306 0.43864 0.684132
81 4 0.795291 0.50939 0.67467
82 1 0.636457 0.449054 0.573257
83 3 0.720546 0.437069 0.511067
84 4 0.589928 0.473981 0.535367
85 1 0.704522 0.343816 0.506398
86 3 0.606465 0.31667 0.471093
87 4 0.729048 0.301543 0.537702
88 1 0.636597 0.335553 0.36051
89 3 0.70597 0.271871 0.357759
90 4 0.657105 0.362835 0.308782
91 1 0.612445 0.207096 0.339252
92 3 0.661964 0.224749 0.25297
93 5 0.603569 0.189299 0.376755
94 1 0.737737 0.150174 0.24876
95 3 0.779922 0.081609 0.209745
96 4 0.802672 0.159803 0.272644
97 1 0.658507 0.0389606 0.215998
98 3 0.570121 0.00136584 0.258055
99 4 0.695366 0.0147511 0.263432
100 1 0.480519 0.0539166 0.209829
101 3 0.400729 0.0740968 0.274978
102 5 0.547697 0.0717004 0.205066
103 1 0.482715 0.101106 0.359051
104 3 0.460992 0.170867 0.308949
105 4 0.541344 0.103121 0.39569
106 1 0.384659 0.205183 0.396482
107 3 0.469775 0.227959 0.455838
108 4 0.319583 0.197774 0.421992
109 1 0.43642 0.321041 0.453879
110 3 0.384238 0.305709 0.540036
111 4 0.401803 0.365499 0.43954
112 1 0.494488 0.302021 0.604143
113 3 0.585724 0.346104 0.623817
114 4 0.526535 0.255822 0.61373
115 1 0.527048 0.402138 0.702972
116 3 0.512707 0.364748 0.789796
117 4 0.479165 0.439596 0.715018
118 1 0.638092 0.368743 0.82135
119 3 0.701859 0.435498 0.819807
120 4 0.674998 0.324455 0.811263
121 1 0.72106 0.436693 0.935434
122 3 0.8101 0.396333 0.899421
123 4 0.708493 0.431845 0.998333
124 1 0.894562 0.469064 0.923555
125 3 0.914837 0.546473 0.948731
126 5 0.827151 0.446012 0.902149
127 1 0.937307 0.573926 0.834938
128 3 0.95277 0.531619 0.750657
129 4 0.998131 0.594311 0.857655
130 1 0.92745 0.603326 0.678796
131 3 0.925068 0.684969 0.682006
132 5 0.929599 0.568965 0.630558
133 1 0.950902 0.695008 0.567796
134 3 0.841306 0.692583 0.546622
135 4 0.985004 0.683671 0.513067
136 1 0.821172 0.784197 0.54633
137 3 0.853966 0.801441 0.452753
138 4 0.824582 0.831728 0.571798
139 1 0.739092 0.774124 0.405902
140 3 0.708727 0.85307 0.402609
141 4 0.673736 0.752851 0.40015
142 1 0.789218 0.87803 0.314451
143 3 0.700411 0.860309 0.257221
144 4 0.852284 0.875982 0.284482
145 1 0.667383 0.948883 0.23488
146 3 0.698309 0.967732 0.141511
147 4 0.655003 0.998634 0.250761
148 1 0.655797 0.87984 0.10158
149 3 0.763805 0.877484 0.130882
150 4 0.648603 0.909616 0.0495186
151 1 0.790573 0.796695 0.0686925
152 3 0.847426 0.839377 0.00166729
153 4 0.786415 0.744417 0.0752366
ITEM: TIMESTEP
1000
ITEM: NUMBER OF ATOMS
153
ITEM: BOX BOUNDS ss ss ss
-12.533 8.873
-16.508 12.778
-13.942 10.049
ITEM: ATOMS id type xs ys zs
1 1 0.108663 0.940748 0.572988
2 3 0.112896 0.864849 0.539297
3 4 0.175771 0.950334 0.598281
4 1 0.127731 0.873841 0.440182
5 3 0.228494 0.886503 0.411495
6 4 0.09568 0.894481 0.387622
7 1 0.282674 0.811902 0.417997
8 3 0.249157 0.74983 0.364567
9 4 0.305468 0.793831 0.47329
10 1 0.345502 0.737832 0.305955
11 3 0.4051 0.686966 0.367651
12 4 0.377283 0.761878 0.258548
13 1 0.406777 0.617525 0.305955
14 3 0.510201 0.643597 0.277957
15 4 0.375531 0.582564 0.262278
16 1 0.571284 0.573868 0.317184
17 3 0.575529 0.525305 0.238362
18 4 0.588323 0.542421 0.368308
19 1 0.672454 0.551613 0.189807
20 3 0.747836 0.489526 0.18242
21 4 0.702323 0.59499 0.162385
22 1 0.806889 0.503255 0.269712
23 3 0.769316 0.496537 0.365225
24 4 0.870251 0.525743 0.264993
25 1 0.831494 0.432129 0.400919
26 3 0.910918 0.482604 0.433349
27 4 0.850474 0.382295 0.399663
28 1 0.885255 0.483693 0.536668
29 3 0.902833 0.565416 0.536281
30 5 0.923639 0.439346 0.535191
31 1 0.798682 0.594779 0.516532
32 3 0.707623 0.578206 0.572126
33 4 0.771241 0.601457 0.458545
34 1 0.692327 0.655879 0.619198
35 3 0.670264 0.724663 0.566904
36 4 0.718035 0.666899 0.676899
37 1 0.562133 0.746893 0.6036
38 3 0.515714 0.757404 0.510188
39 4 0.598573 0.790814 0.597088
40 1 0.472283 0.681692 0.491742
41 3 0.411559 0.629948 0.550616
42 4 0.522535 0.663668 0.456191
43 1 0.323811 0.614363 0.480623
44 3 0.361222 0.542962 0.43762
45 4 0.269236 0.624892 0.444308
46 1 0.354618 0.488703 0.519213
47 3 0.272151 0.435051 0.498756
48 4 0.397761 0.478748 0.567845
49 1 0.214835 0.435772 0.587157
50 3 0.1228 0.483306 0.595784
51 4 0.211647 0.42479 0.649149
52 1 0.0979126 0.488709 0.491496
53 3 0.149626 0.561282 0.47697
54 5 0.133861 0.460949 0.534605
55 1 0.0735329 0.610691 0.525512
56 3 0.117612 0.661711 0.590947
57 4 0.00540718 0.630541 0.522157
58 1 0.165909 0.607935 0.659524
59 3 0.263159 0.593249 0.622526
60 4 0.155288 0.567577 0.701228
61 1 0.324702 0.660143 0.6532
62 3 0.368672 0.633784 0.739726
63 4 0.327453 0.712451 0.660267
64 1 0.469122 0.597845 0.700517
65 3 0.523852 0.668962 0.721387
66 4 0.518759 0.57435 0.664952
67 1 0.498394 0.671158 0.825716
68 3 0.605759 0.649544 0.827033
69 5 0.537855 0.637581 0.850806
70 1 0.657524 0.722255 0.866046
71 3 0.661403 0.685132 0.951414
72 4 0.667633 0.771773 0.884298
73 1 0.754803 0.631413 0.933715
74 3 0.740197 0.552213 0.92868
75 5 0.719475 0.676003 0.947681
76 1 0.680437 0.543213 0.839524
77 3 0.701977 0.583174 0.750834
78 4 0.611531 0.539645 0.849553
79 1 0.718671 0.510145 0.692978
80 3 0.669504 0.440385 0.674548
81 4 0.7877 0.495308 0.697354
82 1 0.632204 0.452927 0.576003
83 3 0.72436 0.427267 0.530057
84 4 0.595345 0.477418 0.535139
85 1 0.698753 0.346915 0.506773
86 3 0.615282 0.315479 0.460956
87 4 0.722459 0.305331 0.537711
88 1 0.64094 0.339181 0.358607
89 3 0.695317 0.264983 0.351425
90 4 0.661206 0.365008 0.310061
91 1 0.603397 0.216847 0.325999
92 3 0.635727 0.213788 0.235997
93 5 0.543252 0.189529 0.338527
94 1 0.728279 0.16254 0.235211
95 3 0.753339 0.083273 0.245996
96 4 0.792715 0.180618 0.244519
97 1 0.659811 0.0464764 0.205523
98 3 0.568642 0.0156778 0.25249
99 4 0.696218 0.0190102 0.25222
100 1 0.483869 0.0601003 0.202329
101 3 0.422059 0.0524568 0.288132
102 5 0.542238 0.061507 0.238043
103 1 0.484685 0.10706 0.347845
104 3 0.449575 0.180341 0.3162
105 4 0.545938 0.110601 0.380207
106 1 0.382802 0.206625 0.396122
107 3 0.459944 0.231509 0.460494
108 4 0.320623 0.194534 0.422512
109 1 0.434624 0.315607 0.463613
110 3 0.390715 0.298114 0.553267
111 4 0.398252 0.360428 0.449042
112 1 0.491503 0.297415 0.606799
113 3 0.574173 0.351397 0.627569
114 4 0.524273 0.250323 0.616749
115 1 0.535371 0.387441 0.710495
116 3 0.536659 0.347397 0.797015
117 4 0.486608 0.425818 0.720206
118 1 0.6503 0.355297 0.82188
119 3 0.690816 0.430831 0.840041
120 4 0.6934 0.316221 0.812018
121 1 0.726237 0.41993 0.938585
122 3 0.83061 0.390375 0.927552
123 4 0.714012 0.410907 1.00305
124 1 0.892383 0.461798 0.931668
125 3 0.904289 0.542863 0.934474
126 5 0.876884 0.440688 0.989047
127 1 0.944436 0.56026 0.842299
128 3 0.963608 0.529654 0.751008
129 4 1.00389 0.582803 0.865314
130 1 0.933802 0.595126 0.690272
131 3 0.953243 0.678542 0.692349
132 5 0.910273 0.587185 0.752042
133 1 0.948062 0.694148 0.591536
134 3 0.838246 0.694333 0.568884
135 4 0.983352 0.690267 0.537269
136 1 0.816729 0.778271 0.568243
137 3 0.845942 0.777773 0.468346
138 4 0.818735 0.829508 0.588635
139 1 0.735281 0.777217 0.426202
140 3 0.703744 0.855056 0.41148
141 4 0.667329 0.757239 0.422379
142 1 0.783915 0.879947 0.340507
143 3 0.69911 0.863545 0.272614
144 4 0.845305 0.881162 0.310966
145 1 0.667852 0.941971 0.249044
146 3 0.706373 0.945169 0.157148
147 4 0.655522 0.991911 0.256442
148 1 0.645724 0.882781 0.113315
149 3 0.716486 0.855842 0.045823
150 4 0.629362 0.92312 0.0784581
151 1 0.793726 0.812166 0.101242
152 3 0.732212 0.742595 0.10313
153 4 0.782531 0.759999 0.0960137
ITEM: TIMESTEP
2000
ITEM: NUMBER OF ATOMS
153
ITEM: BOX BOUNDS ss ss ss
-12.346 8.74001
-16.6792 12.7142
-12.6449 10.1711
ITEM: ATOMS id type xs ys zs
1 1 0.151129 0.990142 0.530397
2 3 0.136256 0.911624 0.513723
3 4 0.219752 0.998567 0.549992
4 1 0.13765 0.905194 0.403206
5 3 0.244046 0.908717 0.373556
6 4 0.103174 0.918201 0.349349
7 1 0.279417 0.828141 0.38626
8 3 0.237722 0.768098 0.333435
9 4 0.304089 0.806558 0.442168
10 1 0.329399 0.746425 0.267941
11 3 0.382112 0.692017 0.329177
12 4 0.368468 0.765947 0.218796
13 1 0.401093 0.629656 0.255521
14 3 0.511024 0.648972 0.239715
15 4 0.381331 0.595572 0.205518
16 1 0.560933 0.579489 0.285188
17 3 0.570845 0.543236 0.189692
18 4 0.579061 0.539812 0.327046
19 1 0.675442 0.568374 0.158229
20 3 0.746502 0.504876 0.141529
21 4 0.701477 0.60908 0.126706
22 1 0.813235 0.509726 0.234211
23 3 0.764636 0.504591 0.329898
24 4 0.875176 0.536759 0.234869
25 1 0.833754 0.443358 0.370923
26 3 0.91809 0.487407 0.40769
27 4 0.856626 0.392905 0.367784
28 1 0.889181 0.492096 0.514263
29 3 0.903315 0.572121 0.526871
30 5 0.945905 0.519468 0.532557
31 1 0.795932 0.601434 0.492195
32 3 0.698804 0.587864 0.541145
33 4 0.776805 0.611504 0.430486
34 1 0.685993 0.65803 0.601601
35 3 0.66943 0.726877 0.547077
36 4 0.711826 0.664657 0.660633
37 1 0.555764 0.747783 0.585047
38 3 0.522737 0.75922 0.485052
39 4 0.587175 0.79296 0.582511
40 1 0.466147 0.685434 0.467941
41 3 0.411816 0.627788 0.523563
42 4 0.514654 0.664688 0.427397
43 1 0.315777 0.614679 0.456655
44 3 0.35706 0.54829 0.405988
45 4 0.260855 0.624788 0.415199
46 1 0.349259 0.489099 0.487483
47 3 0.253957 0.447205 0.460703
48 4 0.394204 0.479361 0.537573
49 1 0.213312 0.430862 0.561774
50 3 0.131619 0.485408 0.566025
51 4 0.209345 0.419344 0.626213
52 1 0.090771 0.478302 0.463569
53 3 0.126377 0.552384 0.446448
54 5 0.0714888 0.507204 0.407508
55 1 0.0576678 0.601788 0.505643
56 3 0.103111 0.647871 0.578827
57 4 -0.00809065 0.622913 0.505223
58 1 0.153675 0.594834 0.645485
59 3 0.25816 0.577946 0.616071
60 4 0.143455 0.552083 0.687733
61 1 0.309175 0.655334 0.638144
62 3 0.358973 0.626693 0.726172
63 4 0.320793 0.705104 0.644984
64 1 0.460817 0.597107 0.684352
65 3 0.507651 0.668972 0.695222
66 4 0.512746 0.574487 0.649617
67 1 0.493092 0.678062 0.808858
68 3 0.601463 0.652651 0.814147
69 5 0.438762 0.681889 0.76387
70 1 0.651812 0.72229 0.852184
71 3 0.662676 0.6813 0.945289
72 4 0.664917 0.769791 0.874347
73 1 0.755333 0.634756 0.926084
74 3 0.708902 0.559025 0.929764
75 5 0.751941 0.615908 0.861625
76 1 0.683468 0.54361 0.825938
77 3 0.71646 0.57957 0.739757
78 4 0.611368 0.540863 0.833504
79 1 0.717181 0.509222 0.673103
80 3 0.673262 0.437874 0.651927
81 4 0.787249 0.498148 0.677838
82 1 0.632865 0.451727 0.548426
83 3 0.727864 0.428892 0.494023
84 4 0.593166 0.47967 0.507438
85 1 0.702792 0.346728 0.479659
86 3 0.618669 0.309488 0.426526
87 4 0.719721 0.302598 0.511897
88 1 0.641645 0.336167 0.32498
89 3 0.695838 0.272763 0.294051
90 4 0.666916 0.363376 0.274091
91 1 0.608221 0.211909 0.303832
92 3 0.622158 0.196756 0.201363
93 5 0.625984 0.185788 0.245905
94 1 0.729309 0.161702 0.197326
95 3 0.744412 0.083154 0.230769
96 4 0.797512 0.178168 0.20999
97 1 0.66811 0.0469223 0.160629
98 3 0.577387 0.000892704 0.130113
99 4 0.697883 0.020794 0.215134
100 1 0.492524 0.0576455 0.161185
101 3 0.416094 0.0606352 0.240494
102 5 0.537126 0.0659936 0.211605
103 1 0.488436 0.105906 0.313959
104 3 0.461166 0.183622 0.28565
105 4 0.551921 0.104376 0.350345
106 1 0.382314 0.203521 0.362204
107 3 0.462361 0.228935 0.430467
108 4 0.315856 0.195154 0.386468
109 1 0.441271 0.31372 0.425729
110 3 0.385586 0.304022 0.519768
111 4 0.408986 0.356768 0.403891
112 1 0.483291 0.301069 0.588222
113 3 0.563476 0.358526 0.598858
114 4 0.515367 0.254532 0.599883
115 1 0.527759 0.389568 0.696106
116 3 0.521709 0.3562 0.792255
117 4 0.47802 0.429269 0.708045
118 1 0.638101 0.351289 0.818574
119 3 0.682826 0.424544 0.835532
120 4 0.688484 0.316045 0.801463
121 1 0.719732 0.416304 0.939762
122 3 0.828482 0.385189 0.917128
123 4 0.710665 0.413041 1.00214
124 1 0.89273 0.456894 0.924408
125 3 0.863008 0.536522 0.914838
126 5 0.938585 0.49597 0.940155
127 1 0.94091 0.561382 0.836389
128 3 0.957448 0.528117 0.741755
129 4 1.00067 0.581625 0.862597
130 1 0.935445 0.599208 0.679118
131 3 0.947186 0.681297 0.685075
132 5 0.983558 0.590823 0.63105
133 1 0.9431 0.698944 0.577861
134 3 0.831937 0.698403 0.551069
135 4 0.973896 0.691707 0.518842
136 1 0.811707 0.783031 0.548178
137 3 0.841104 0.792528 0.445276
138 4 0.820792 0.826635 0.577428
139 1 0.739875 0.778141 0.397501
140 3 0.714354 0.855023 0.382179
141 4 0.674423 0.75231 0.38952
142 1 0.788235 0.874913 0.299269
143 3 0.708538 0.863548 0.230259
144 4 0.847626 0.877736 0.264248
145 1 0.662919 0.941743 0.219193
146 3 0.700744 0.946391 0.119034
147 4 0.651303 0.99241 0.231015
148 1 0.648753 0.87935 0.0744257
149 3 0.735962 0.844022 0.0210517
150 4 0.647786 0.916769 0.0256356
151 1 0.784455 0.801305 0.10582
152 3 0.793503 0.727026 0.136708
153 4 0.779141 0.76547 0.0578379
ITEM: TIMESTEP
3000
ITEM: NUMBER OF ATOMS
153
ITEM: BOX BOUNDS ss ss ss
-12.346 8.74001
-16.6792 12.7142
-12.6449 10.1711
ITEM: ATOMS id type xs ys zs
1 1 0.0486715 0.886189 0.545038
2 3 0.0307135 0.843658 0.456587
3 4 0.111964 0.894276 0.574245
4 1 0.116235 0.869928 0.390645
5 3 0.223478 0.890568 0.397243
6 4 0.0862615 0.904815 0.347542
7 1 0.275171 0.814309 0.375423
8 3 0.246525 0.75738 0.309338
9 4 0.297116 0.790391 0.431147
10 1 0.35039 0.744668 0.255233
11 3 0.422951 0.699898 0.31078
12 4 0.388061 0.769294 0.20691
13 1 0.410673 0.624323 0.256015
14 3 0.517567 0.641013 0.224418
15 4 0.380314 0.584896 0.221866
16 1 0.578493 0.582914 0.276925
17 3 0.595189 0.530093 0.192953
18 4 0.595801 0.546249 0.32262
19 1 0.689411 0.563178 0.156188
20 3 0.770314 0.509022 0.142725
21 4 0.704367 0.602273 0.113354
22 1 0.824233 0.513031 0.24189
23 3 0.785435 0.509486 0.341341
24 4 0.886447 0.535979 0.233381
25 1 0.846397 0.442295 0.380404
26 3 0.926324 0.489901 0.418449
27 4 0.869588 0.394372 0.377927
28 1 0.898334 0.495481 0.522184
29 3 0.915138 0.579598 0.517725
30 5 0.839872 0.511408 0.494903
31 1 0.805884 0.600714 0.492172
32 3 0.712834 0.58506 0.550842
33 4 0.782553 0.60709 0.427565
34 1 0.695622 0.66231 0.594533
35 3 0.672633 0.733796 0.550952
36 4 0.716953 0.665092 0.658037
37 1 0.559261 0.745871 0.580747
38 3 0.512763 0.762561 0.486341
39 4 0.596402 0.790538 0.573778
40 1 0.474809 0.683736 0.457597
41 3 0.410978 0.633965 0.517228
42 4 0.524147 0.661378 0.421499
43 1 0.322133 0.617628 0.447381
44 3 0.368656 0.551791 0.406892
45 4 0.272246 0.630792 0.404802
46 1 0.356769 0.495056 0.486997
47 3 0.262047 0.451152 0.462662
48 4 0.412198 0.490945 0.526332
49 1 0.219231 0.436735 0.562154
50 3 0.125118 0.481681 0.562646
51 4 0.211493 0.428249 0.625398
52 1 0.101754 0.494718 0.460744
53 3 0.15395 0.568715 0.446585
54 5 0.0334828 0.503744 0.456143
55 1 0.0734105 0.619794 0.497003
56 3 0.127662 0.66053 0.572425
57 4 0.00327576 0.635224 0.499563
58 1 0.159424 0.596077 0.640069
59 3 0.259886 0.590194 0.593702
60 4 0.148655 0.555864 0.675749
61 1 0.320977 0.657369 0.635313
62 3 0.365944 0.628896 0.72641
63 4 0.323735 0.709845 0.642016
64 1 0.471479 0.600922 0.683833
65 3 0.518142 0.67123 0.696132
66 4 0.518277 0.57518 0.645261
67 1 0.504817 0.680041 0.809888
68 3 0.614935 0.657304 0.811484
69 5 0.56838 0.670251 0.777132
70 1 0.664965 0.728195 0.850228
71 3 0.685109 0.702881 0.947374
72 4 0.66712 0.778347 0.867504
73 1 0.757936 0.636637 0.927161
74 3 0.720169 0.560539 0.934788
75 5 0.773069 0.585417 0.938489
76 1 0.686056 0.549296 0.828556
77 3 0.708491 0.581556 0.731691
78 4 0.614712 0.550751 0.838057
79 1 0.722879 0.508216 0.676948
80 3 0.656537 0.444088 0.6559
81 4 0.790233 0.488626 0.681512
82 1 0.638787 0.448945 0.55025
83 3 0.714951 0.427492 0.481837
84 4 0.610426 0.482597 0.504493
85 1 0.705693 0.341323 0.485934
86 3 0.617556 0.309915 0.436956
87 4 0.720756 0.302281 0.52613
88 1 0.648351 0.332305 0.332687
89 3 0.703944 0.262023 0.317937
90 4 0.678223 0.360599 0.281717
91 1 0.60983 0.208953 0.304355
92 3 0.63397 0.199702 0.19976
93 5 0.594444 0.238619 0.354253
94 1 0.732892 0.157585 0.203065
95 3 0.740309 0.0787826 0.229234
96 4 0.79932 0.169399 0.224635
97 1 0.657055 0.0444602 0.167524
98 3 0.565442 0.0039578 0.139686
99 4 0.675714 0.0194516 0.220267
100 1 0.486122 0.0682226 0.154484
101 3 0.407648 0.0814857 0.227864
102 5 0.525254 0.0446888 0.106493
103 1 0.467506 0.1158 0.309312
104 3 0.456738 0.195375 0.284572
105 4 0.514646 0.110946 0.356983
106 1 0.372655 0.215945 0.357153
107 3 0.453888 0.242271 0.426998
108 4 0.306184 0.214776 0.382903
109 1 0.436858 0.325734 0.418901
110 3 0.390244 0.327895 0.514937
111 4 0.405493 0.371658 0.399277
112 1 0.481366 0.307675 0.575565
113 3 0.552648 0.367695 0.589888
114 4 0.511917 0.259986 0.594272
115 1 0.523133 0.395919 0.68987
116 3 0.519847 0.349317 0.777308
117 4 0.469666 0.433407 0.706446
118 1 0.627388 0.360652 0.817369
119 3 0.693231 0.42712 0.831697
120 4 0.658946 0.316745 0.801435
121 1 0.712034 0.426084 0.937307
122 3 0.814459 0.394653 0.926116
123 4 0.693956 0.419109 1.00215
124 1 0.879223 0.462884 0.922378
125 3 0.884067 0.545647 0.929381
126 5 0.878234 0.488919 0.863771
127 1 0.942803 0.560862 0.83321
128 3 0.937337 0.527008 0.735969
129 4 1.00346 0.577758 0.862199
130 1 0.934206 0.598303 0.679494
131 3 0.934612 0.680448 0.670852
132 5 0.870947 0.575975 0.685404
133 1 0.957788 0.690324 0.566187
134 3 0.850106 0.693558 0.535498
135 4 0.992255 0.678883 0.508593
136 1 0.827589 0.777819 0.548913
137 3 0.857642 0.783574 0.447369
138 4 0.831814 0.826992 0.573356
139 1 0.74769 0.780757 0.404082
140 3 0.708635 0.858776 0.391362
141 4 0.677366 0.763013 0.401361
142 1 0.789453 0.880919 0.313784
143 3 0.709154 0.873233 0.239124
144 4 0.853083 0.885588 0.282196
145 1 0.679795 0.952794 0.224756
146 3 0.73301 0.956091 0.131368
147 4 0.67217 1.00316 0.232944
148 1 0.677266 0.892681 0.0783873
149 3 0.765501 0.852989 0.0380363
150 4 0.691786 0.928659 0.0349482
151 1 0.779553 0.789557 0.115246
152 3 0.88659 0.7831 0.0821069
153 4 0.784939 0.765258 0.0590899
