LAMMPS protain data file

         225  atoms
         298  bonds
           0  angles
           0  dihedrals
           0  impropers

           5  atom types
           5  bond types
           0  angle types
           0  dihedral types
           0  improper types

-200.0	200.0	xlo xhi
-200.0	200.0	ylo yhi
-200.0	200.0	zlo zhi

Masses

           1	27.0
           2	14.0
           3	28.0
           4	60.0
           5	60.0

Atoms

           1	1	1	1	0.0	6.67700005	-0.51499999	29.35199928
           2	1	1	3	0.0	5.46000004	-0.336	27.30900002
           3	1	1	4	0.0	6.80100012	0.85799998	30.03700066
           4	1	2	1	0.0	3.05200005	-1.05499995	28.48999977
           5	1	2	3	0.0	3.0079999	1.29299998	28.92300034
           6	1	2	4	0.0	2.02900004	-1.70799994	29.41799927
           7	1	3	1	0.0	1.15999997	1.81400001	26.74200058
           8	1	3	3	0.0	0.38	3.72199988	27.90399933
           9	1	3	4	0.0	0.19400001	1.37	25.64299965
          10	1	4	1	0.0	-1.08000004	2.26099992	29.78499985
          11	1	4	3	0.0	-0.33500001	3.96600008	31.22500038
          12	1	4	4	0.0	-1.86699998	1.19799995	30.55200005
          13	1	5	1	0.0	2.06599998	2.75099993	31.82999992
          14	1	5	3	0.0	2.89100003	5.0079999	31.81699944
          15	1	5	4	0.0	3.16300011	1.72599995	31.98200035
          16	1	6	1	0.0	3.58800006	4.96899986	29.16900063
          17	1	6	3	0.0	3.21000004	7.30600023	29.2840004
          18	1	6	4	0.0	3.88000011	4.55900002	27.72900009
          19	1	7	1	0.0	0.421	7.16200018	29.12199974
          20	1	7	3	0.0	0.447	9.18500042	30.43099976
          21	1	7	4	0.0	-1.023	6.67199993	28.81100082
          22	1	8	1	0.0	0.60799998	7.81500006	32.86000061
          23	1	8	3	0.0	1.79299998	9.73200035	33.60800171
          24	1	8	5	0.0	0.52399999	7.35540112	31.92064554
          25	1	9	1	0.0	4.29699993	8.90299988	32.60499954
          26	1	9	3	0.0	4.53999996	11.26799965	32.15499878
          27	1	9	4	0.0	5.52400017	7.98000002	32.1629982
          28	1	10	1	0.0	3.60500002	11.10200024	29.52300072
          29	1	10	3	0.0	3.1960001	13.32299995	30.26799965
          30	1	10	4	0.0	2.90499997	10.59899998	28.23399925
          31	1	11	1	0.0	0.685	12.85599995	31.29599953
          32	1	11	3	0.0	0.875	14.80700016	32.63399887
          33	1	11	4	0.0	-0.58700001	12.24800014	31.84300041
          34	1	12	1	0.0	2.63199997	13.5539999	34.43199921
          35	1	12	3	0.0	3.52399993	15.76599979	34.63999939
          36	1	12	4	0.0	3.31399989	12.42800045	35.20199966
          37	1	13	1	0.0	5.27400017	15.57199955	32.53900146
          38	1	13	3	0.0	5.03599977	17.80900002	31.63400078
          39	1	13	4	0.0	6.50299978	14.9289999	31.88199997
          40	1	14	1	0.0	2.96499991	17.16900063	29.97500038
          41	1	14	3	0.0	1.95700002	19.27700043	30.47500038
          42	1	14	4	0.0	2.0309999	16.40299988	29.06399918
          43	1	15	1	0.0	0.91500002	18.50799942	32.88399887
          44	1	15	3	0.0	1.08599997	20.63400078	34.00600052
          45	1	15	4	0.0	0.345	17.68700027	33.99300003
          46	1	16	1	0.0	3.88800001	20.60899925	34.03499985
          47	1	16	3	0.0	3.37400007	22.97100067	34.28499985
          48	1	16	4	0.0	5.34399986	20.3010006	33.68899918
          49	1	17	1	0.0	2.95799994	23.43199921	31.60499954
          50	1	17	3	0.0	2.61299992	22.16200066	29.57999992
          51	1	17	4	0.0	4.13399982	24.42300034	31.63899994
          52	1	18	1	0.0	1.33899999	24.32500076	28.29100037
          53	1	18	3	0.0	-0.64099997	23.15699959	29.04599953
          54	1	18	5	0.0	1.87100005	23.41019445	25.29351911
          55	1	19	1	0.0	-0.921	21.81599998	26.57500076
          56	1	19	3	0.0	0.28999999	19.81800079	27.21100044
          57	1	19	4	0.0	-0.81699997	21.57699966	25.06699944
          58	1	20	1	0.0	-1.60399997	18.77700043	28.80999947
          59	1	20	3	0.0	-1.375	16.46299934	28.36599922
          60	1	20	4	0.0	-2.80999994	18.74600029	29.74200058
          61	1	21	1	0.0	-1.74100006	16.61199951	25.67499924
          62	1	21	3	0.0	-0.53600001	15.8210001	23.78499985
          63	1	21	4	0.0	-3.00200009	16.57699966	24.80900002
          64	1	22	1	0.0	1.72000003	17.50600052	24.29899979
          65	1	22	3	0.0	2.73200011	17.98399925	26.39999962
          66	1	22	4	0.0	1.78499997	18.83300018	23.52799988
          67	1	23	1	0.0	5.30800009	17.25	25.50900078
          68	1	23	3	0.0	6.46700001	17.79100037	23.50900078
          69	1	23	4	0.0	5.81699991	15.8210001	25.57500076
          70	1	24	1	0.0	7.95800018	19.87299919	24.51099968
          71	1	24	3	0.0	9.33899975	18.14599991	25.39599991
          72	1	24	4	0.0	8.18099976	21.29400063	25.07799911
          73	1	25	1	0.0	11.5340004	18.8239994	24.02400017
          74	1	25	3	0.0	12.68999958	17.74699974	25.86899948
          75	1	25	4	0.0	12.4989996	19.34600067	23.00300026
          76	1	26	1	0.0	12.65100002	19.95800018	27.54299927
          77	1	26	3	0.0	12.56499958	18.54400063	29.40299988
          78	1	26	4	0.0	12.56799984	21.34799957	28.10199928
          79	1	27	1	0.0	9.79500008	18.10700035	29.25
          80	1	27	3	0.0	10.23999977	15.79800034	29.82900047
          81	1	27	4	0.0	8.29300022	18.28800011	28.99600029
          82	1	28	1	0.0	10.86100006	15.03199959	27.23900032
          83	1	28	3	0.0	12.4630003	13.69999981	28.38500023
          84	1	28	4	0.0	10.83300018	14.91600037	25.71500015
          85	1	29	1	0.0	14.47500038	15.47299957	28.38100052
          86	1	29	3	0.0	15.0909996	14.17500019	30.30900002
          87	1	29	4	0.0	15.39799976	16.65299988	28.15800095
          88	1	30	1	0.0	13.45400047	15.54699993	32.11700058
          89	1	30	3	0.0	13.1260004	13.43599987	33.20399857
          90	1	30	4	0.0	12.57900047	16.59600067	32.81600189
          91	1	31	1	0.0	11.12100029	12.58899975	31.5510006
          92	1	31	3	0.0	12.16800022	10.50800037	32.11800003
          93	1	31	4	0.0	9.98999977	12.56099987	30.50799942
          94	1	32	1	0.0	13.96399975	10.4460001	29.96199989
          95	1	32	3	0.0	15.31299973	9.25899982	31.51099968
          96	1	32	4	0.0	14.70199966	10.70699978	28.65800095
          97	1	33	1	0.0	16.49099922	11.48200035	32.52399826
          98	1	33	3	0.0	16.75399971	10.03800011	34.46900177
          99	1	33	4	0.0	16.79000092	12.94999981	32.86999893
         100	1	34	1	0.0	14.35499954	10.31499958	35.40299988
         101	1	34	3	0.0	13.88899994	8.06999969	35.97900009
         102	1	34	4	0.0	13.60499954	11.24499989	36.40599823
         103	1	35	1	0.0	12.25500011	7.54799986	33.83499908
         104	1	35	3	0.0	12.71399975	5.26800013	33.18099976
         105	1	35	4	0.0	10.88500023	7.81099987	33.18500137
         106	1	36	1	0.0	14.50899982	5.97300005	31.20499992
         107	1	36	3	0.0	16.3560009	6.80100012	29.95800018
         108	1	36	4	0.0	13.88300037	5.93400002	29.79700089
         109	1	37	1	0.0	18.00200081	7.19700003	32.15200043
         110	1	37	3	0.0	19.82900047	7.09499979	30.56900024
         111	1	37	4	0.0	18.45499992	7.07000017	33.63100052
         112	1	38	1	0.0	19.56699944	4.4000001	30.04400063
         113	1	38	3	0.0	20.25499916	4.63600016	27.75900078
         114	1	38	4	0.0	19.25900078	2.91300011	30.1970005
         115	1	39	1	0.0	17.94799995	5.84100008	26.9109993
         116	1	39	3	0.0	18.74300003	7.45300007	25.37299919
         117	1	39	4	0.0	16.44799995	5.89900017	26.61800003
         118	1	40	1	0.0	19.94000053	9.04199982	27.28300095
         119	1	40	3	0.0	22.27400017	9.67599964	27.56399918
         120	1	40	4	0.0	19.57999992	10.0880003	28.3409996
         121	1	41	1	0.0	23.32299995	7.24300003	26.89699936
         122	1	41	3	0.0	23.28300095	6.80800009	24.51399994
         123	1	41	4	0.0	23.60499954	5.89300013	27.59499931
         124	1	42	1	0.0	26.07099915	7.42500019	24.26000023
         125	1	42	3	0.0	24.74799919	9.27900028	23.60199928
         126	1	42	5	0.0	25.26399994	6.30337777	22.19488885
         127	1	43	1	0.0	25.62700081	9.38099957	21.01300049
         128	1	43	3	0.0	23.48200035	8.24600029	20.70700073
         129	1	43	4	0.0	26.40099907	8.96399975	19.76099968
         130	1	44	1	0.0	21.98600006	10.5170002	20.85300064
         131	1	44	3	0.0	21.78800011	11.73499966	18.76600075
         132	1	44	4	0.0	21.38800049	11.47000027	21.90099907
         133	1	45	1	0.0	19.40099907	10.41300011	18.17900085
         134	1	45	3	0.0	17.16600037	11.20499992	17.81200027
         135	1	45	4	0.0	19.05999947	9.07800007	17.6060009
         136	1	46	1	0.0	16.90500069	12.39500046	20.31599998
         137	1	46	3	0.0	15.32999992	13.64500046	19.0170002
         138	1	46	4	0.0	17.07299995	12.89400005	21.8010006
         139	1	47	1	0.0	16.98699951	15.54699993	18.20700073
         140	1	47	3	0.0	15.68299961	15.80300045	16.20499992
         141	1	47	4	0.0	18.09399986	16.5909996	18.16699982
         142	1	48	1	0.0	16.75200081	13.67599964	14.90100002
         143	1	48	3	0.0	14.47500038	13.43999958	14.16100025
         144	1	48	4	0.0	17.80900002	12.71199989	14.32199955
         145	1	49	1	0.0	13.76399994	11.58300018	16.0529995
         146	1	49	3	0.0	11.70300007	12.69200039	15.76000023
         147	1	49	4	0.0	13.72900009	10.57400036	17.16900063
         148	1	50	1	0.0	12.16399956	14.6420002	17.67099953
         149	1	50	3	0.0	10.54199982	15.72999954	16.24399948
         150	1	50	4	0.0	12.77600002	15.52499962	18.77400017
         151	1	51	1	0.0	12.45899963	16.7329998	14.45100021
         152	1	51	3	0.0	10.64400005	16.60400009	12.83300018
         153	1	51	4	0.0	13.81200027	17.18199921	13.7840004
         154	1	52	1	0.0	11.00300026	13.92700005	12.32199955
         155	1	52	3	0.0	8.70100021	13.68999958	11.91499996
         156	1	52	4	0.0	11.66899967	12.56799984	12.11400032
         157	1	53	1	0.0	8.05200005	13.21100044	14.64500046
         158	1	53	3	0.0	5.89400005	14.30900002	14.88099957
         159	1	53	4	0.0	8.24300003	12.38700008	15.93900013
         160	1	54	1	0.0	6.93200016	16.77599907	15.4289999
         161	1	54	3	0.0	7.04799986	18.26000023	13.54100037
         162	1	54	4	0.0	7.84499979	17.8220005	16.03899956
         163	1	55	1	0.0	5.18400002	16.89999962	12.07199955
         164	1	55	3	0.0	5.05700016	18.98600006	10.86600018
         165	1	55	4	0.0	4.1079998	15.94799995	11.57400036
         166	1	56	1	0.0	3.40400004	20.23500061	12.61100006
         167	1	56	3	0.0	4.08300018	22.50499916	13.07900047
         168	1	56	4	0.0	2.10299993	20.41900063	13.37100029
         169	1	57	1	0.0	6.71799994	21.79800034	13.70800018
         170	1	57	3	0.0	7.09000015	23.85499954	14.86400032
         171	1	57	5	0.0	5.59499979	20.66083138	12.43102989
         172	1	58	1	0.0	5.42799997	23.29899979	16.93899918
         173	1	58	3	0.0	5.98199987	23.6760006	19.25799942
         174	1	58	4	0.0	3.93899989	23.26199913	17.2670002
         175	1	59	1	0.0	8.21399975	22.06500053	19.22299957
         176	1	59	3	0.0	8.10000038	20.91200066	21.27599907
         177	1	59	5	0.0	7.36199999	21.01349829	18.47525915
         178	1	60	1	0.0	5.89099979	19.49500084	20.76300049
         179	1	60	3	0.0	5.09700012	18.24399948	18.83099937
         180	1	60	4	0.0	4.73999977	20.1590004	21.49900055
         181	1	61	1	0.0	4.91300011	15.83199978	20.25099945
         182	1	61	3	0.0	3.56500006	15.49499989	22.25
         183	1	61	4	0.0	6.01499987	14.80599976	20.21699905
         184	1	62	1	0.0	1.63999999	13.97299957	20.97299957
         185	1	62	3	0.0	3.21700001	12.25800037	21.62800026
         186	1	62	4	0.0	0.63200003	13.63599968	19.89699936
         187	1	63	1	0.0	1.36800003	10.74600029	23.03000069
         188	1	63	3	0.0	2.90799999	9.03600025	22.27300072
         189	1	63	4	0.0	0.131	10.22599983	23.80200005
         190	1	64	1	0.0	1.58399999	8.4659996	19.9470005
         191	1	64	3	0.0	3.79999995	7.80000019	19.19300079
         192	1	64	4	0.0	0.54000002	8.34200001	18.83699989
         193	1	65	1	0.0	4.70100021	10.39299965	18.72200012
         194	1	65	3	0.0	6.83099985	9.47799969	19.41799927
         195	1	65	4	0.0	4.68400002	11.87800026	18.34900093
         196	1	66	1	0.0	6.28900003	9.9090004	22.13699913
         197	1	66	3	0.0	7.61899996	7.90399981	22.42900085
         198	1	66	4	0.0	5.63500023	10.45499992	23.42099953
         199	1	67	1	0.0	5.56099987	6.16200018	22.00699997
         200	1	67	3	0.0	7.41699982	4.954	21.27400017
         201	1	67	4	0.0	4.26499987	5.44000006	21.67700005
         202	1	68	1	0.0	7.25299978	5.8829999	18.64299965
         203	1	68	3	0.0	9.60999966	5.49900007	18.78499985
         204	1	68	4	0.0	6.84399986	6.57000017	17.25300026
         205	1	69	1	0.0	10.18799973	7.98799992	19.95299911
         206	1	69	3	0.0	12.08899975	6.70699978	20.7310009
         207	1	69	4	0.0	10.10499954	9.45199966	20.47900009
         208	1	70	1	0.0	10.80900002	5.67700005	22.99699974
         209	1	70	3	0.0	12.27000046	3.83100009	22.57299995
         210	1	70	4	0.0	9.81900024	5.40299988	24.18300056
         211	1	71	1	0.0	10.55300045	2.60700011	20.75699997
         212	1	71	3	0.0	12.74400043	1.87	20.01000023
         213	1	71	4	0.0	9.39099979	2.36299992	19.78800011
         214	1	72	1	0.0	12.99800014	3.829	18.14299965
         215	1	72	3	0.0	15.35700035	3.59800005	18.47500038
         216	1	72	4	0.0	12.63199997	4.81899977	17.04199982
         217	1	73	1	0.0	15.52700043	5.46500015	20.39800072
         218	1	73	3	0.0	17.36499977	4.26200008	21.39100075
         219	1	73	4	0.0	15.32400036	6.76399994	21.25699997
         220	1	74	1	0.0	15.79500008	2.0250001	22.12100029
         221	1	74	3	0.0	17.07799911	0.115	21.89699936
         222	1	74	4	0.0	14.60299969	1.22399998	22.58499908
         223	1	75	1	0.0	17.14699936	0.105	19.18799973
         224	1	75	3	0.0	19.25900078	-0.193	18.12000084
         225	1	75	4	0.0	16.0720005	-0.69099998	18.46999931

Bond Coeffs

           1	200.0	3.77
           2	200.0	2.41
           3	200.0	2.50
           4	200.0	1.54
           5	200.0	1.54
Bonds

           1	2	1	2
           2	4	1	3
           3	1	1	4
           4	3	2	4
           5	2	4	5
           6	4	4	6
           7	1	4	7
           8	3	5	7
           9	2	7	8
          10	4	7	9
          11	1	7	10
          12	3	8	10
          13	2	10	11
          14	4	10	12
          15	1	10	13
          16	3	11	13
          17	2	13	14
          18	4	13	15
          19	1	13	16
          20	3	14	16
          21	2	16	17
          22	4	16	18
          23	1	16	19
          24	3	17	19
          25	2	19	20
          26	4	19	21
          27	1	19	22
          28	3	20	22
          29	2	22	23
          30	5	22	24
          31	1	22	25
          32	3	23	25
          33	2	25	26
          34	4	25	27
          35	1	25	28
          36	3	26	28
          37	2	28	29
          38	4	28	30
          39	1	28	31
          40	3	29	31
          41	2	31	32
          42	4	31	33
          43	1	31	34
          44	3	32	34
          45	2	34	35
          46	4	34	36
          47	1	34	37
          48	3	35	37
          49	2	37	38
          50	4	37	39
          51	1	37	40
          52	3	38	40
          53	2	40	41
          54	4	40	42
          55	1	40	43
          56	3	41	43
          57	2	43	44
          58	4	43	45
          59	1	43	46
          60	3	44	46
          61	2	46	47
          62	4	46	48
          63	1	46	49
          64	3	47	49
          65	2	49	50
          66	4	49	51
          67	1	49	52
          68	3	50	52
          69	2	52	53
          70	5	52	54
          71	1	52	55
          72	3	53	55
          73	2	55	56
          74	4	55	57
          75	1	55	58
          76	3	56	58
          77	2	58	59
          78	4	58	60
          79	1	58	61
          80	3	59	61
          81	2	61	62
          82	4	61	63
          83	1	61	64
          84	3	62	64
          85	2	64	65
          86	4	64	66
          87	1	64	67
          88	3	65	67
          89	2	67	68
          90	4	67	69
          91	1	67	70
          92	3	68	70
          93	2	70	71
          94	4	70	72
          95	1	70	73
          96	3	71	73
          97	2	73	74
          98	4	73	75
          99	1	73	76
         100	3	74	76
         101	2	76	77
         102	4	76	78
         103	1	76	79
         104	3	77	79
         105	2	79	80
         106	4	79	81
         107	1	79	82
         108	3	80	82
         109	2	82	83
         110	4	82	84
         111	1	82	85
         112	3	83	85
         113	2	85	86
         114	4	85	87
         115	1	85	88
         116	3	86	88
         117	2	88	89
         118	4	88	90
         119	1	88	91
         120	3	89	91
         121	2	91	92
         122	4	91	93
         123	1	91	94
         124	3	92	94
         125	2	94	95
         126	4	94	96
         127	1	94	97
         128	3	95	97
         129	2	97	98
         130	4	97	99
         131	1	97	100
         132	3	98	100
         133	2	100	101
         134	4	100	102
         135	1	100	103
         136	3	101	103
         137	2	103	104
         138	4	103	105
         139	1	103	106
         140	3	104	106
         141	2	106	107
         142	4	106	108
         143	1	106	109
         144	3	107	109
         145	2	109	110
         146	4	109	111
         147	1	109	112
         148	3	110	112
         149	2	112	113
         150	4	112	114
         151	1	112	115
         152	3	113	115
         153	2	115	116
         154	4	115	117
         155	1	115	118
         156	3	116	118
         157	2	118	119
         158	4	118	120
         159	1	118	121
         160	3	119	121
         161	2	121	122
         162	4	121	123
         163	1	121	124
         164	3	122	124
         165	2	124	125
         166	5	124	126
         167	1	124	127
         168	3	125	127
         169	2	127	128
         170	4	127	129
         171	1	127	130
         172	3	128	130
         173	2	130	131
         174	4	130	132
         175	1	130	133
         176	3	131	133
         177	2	133	134
         178	4	133	135
         179	1	133	136
         180	3	134	136
         181	2	136	137
         182	4	136	138
         183	1	136	139
         184	3	137	139
         185	2	139	140
         186	4	139	141
         187	1	139	142
         188	3	140	142
         189	2	142	143
         190	4	142	144
         191	1	142	145
         192	3	143	145
         193	2	145	146
         194	4	145	147
         195	1	145	148
         196	3	146	148
         197	2	148	149
         198	4	148	150
         199	1	148	151
         200	3	149	151
         201	2	151	152
         202	4	151	153
         203	1	151	154
         204	3	152	154
         205	2	154	155
         206	4	154	156
         207	1	154	157
         208	3	155	157
         209	2	157	158
         210	4	157	159
         211	1	157	160
         212	3	158	160
         213	2	160	161
         214	4	160	162
         215	1	160	163
         216	3	161	163
         217	2	163	164
         218	4	163	165
         219	1	163	166
         220	3	164	166
         221	2	166	167
         222	4	166	168
         223	1	166	169
         224	3	167	169
         225	2	169	170
         226	5	169	171
         227	1	169	172
         228	3	170	172
         229	2	172	173
         230	4	172	174
         231	1	172	175
         232	3	173	175
         233	2	175	176
         234	5	175	177
         235	1	175	178
         236	3	176	178
         237	2	178	179
         238	4	178	180
         239	1	178	181
         240	3	179	181
         241	2	181	182
         242	4	181	183
         243	1	181	184
         244	3	182	184
         245	2	184	185
         246	4	184	186
         247	1	184	187
         248	3	185	187
         249	2	187	188
         250	4	187	189
         251	1	187	190
         252	3	188	190
         253	2	190	191
         254	4	190	192
         255	1	190	193
         256	3	191	193
         257	2	193	194
         258	4	193	195
         259	1	193	196
         260	3	194	196
         261	2	196	197
         262	4	196	198
         263	1	196	199
         264	3	197	199
         265	2	199	200
         266	4	199	201
         267	1	199	202
         268	3	200	202
         269	2	202	203
         270	4	202	204
         271	1	202	205
         272	3	203	205
         273	2	205	206
         274	4	205	207
         275	1	205	208
         276	3	206	208
         277	2	208	209
         278	4	208	210
         279	1	208	211
         280	3	209	211
         281	2	211	212
         282	4	211	213
         283	1	211	214
         284	3	212	214
         285	2	214	215
         286	4	214	216
         287	1	214	217
         288	3	215	217
         289	2	217	218
         290	4	217	219
         291	1	217	220
         292	3	218	220
         293	2	220	221
         294	4	220	222
         295	1	220	223
         296	3	221	223
         297	2	223	224
         298	4	223	225

