ITEM: TIMESTEP
0
ITEM: NUMBER OF ATOMS
225
ITEM: BOX BOUNDS ss ss ss
-3.042 26.441
-1.748 24.463
10.826 36.446
ITEM: ATOMS id type xs ys zs
1 1 0.329648 0.0470413 0.723107
2 3 0.28837 0.0538705 0.643365
3 4 0.333853 0.0994239 0.749844
4 1 0.206695 0.0264393 0.689461
5 3 0.205203 0.11602 0.706362
6 4 0.171997 0.00152608 0.725683
7 1 0.142523 0.135897 0.621233
8 3 0.116067 0.208691 0.666589
9 4 0.109758 0.118958 0.578337
10 1 0.0665468 0.152951 0.740008
11 3 0.0918156 0.218 0.796214
12 4 0.0398535 0.112396 0.769945
13 1 0.173252 0.171645 0.819828
14 3 0.201235 0.257754 0.819321
15 4 0.21046 0.13254 0.825761
16 1 0.224875 0.256266 0.715964
17 3 0.212054 0.345427 0.720453
18 4 0.234779 0.240624 0.659758
19 1 0.117458 0.339934 0.71413
20 3 0.118339 0.417115 0.765223
21 4 0.0684801 0.321239 0.701991
22 1 0.1238 0.364847 0.860031
23 3 0.163993 0.437984 0.889227
24 5 0.120951 0.347312 0.823366
25 1 0.248923 0.406356 0.850078
26 3 0.257165 0.496585 0.832514
27 4 0.29054 0.371142 0.832826
28 1 0.225452 0.490252 0.729781
29 3 0.21158 0.574988 0.75886
30 4 0.201709 0.471062 0.679469
31 1 0.126412 0.557171 0.798985
32 3 0.132856 0.631605 0.85121
33 4 0.0832683 0.533974 0.820336
34 1 0.19245 0.583801 0.92139
35 3 0.222705 0.668193 0.929508
36 4 0.215582 0.540842 0.951444
37 1 0.282061 0.660791 0.847502
38 3 0.273988 0.746137 0.812178
39 4 0.323746 0.63626 0.821858
40 1 0.203745 0.72172 0.747424
41 3 0.169555 0.802144 0.76694
42 4 0.172065 0.692496 0.711866
43 1 0.134213 0.772805 0.860968
44 3 0.140013 0.853916 0.904762
45 4 0.11488 0.741483 0.904255
46 1 0.235051 0.852962 0.905894
47 3 0.217617 0.943077 0.915652
48 4 0.284435 0.841212 0.892389
49 1 0.203507 0.960665 0.811046
50 3 0.191805 0.912212 0.732006
51 4 0.243395 0.998474 0.812373
52 1 0.148594 0.994735 0.681694
53 3 0.0814368 0.950174 0.711163
54 5 0.166638 0.959833 0.564696
55 1 0.0719398 0.899012 0.614715
56 3 0.113014 0.822784 0.639539
57 4 0.0754672 0.889894 0.555855
58 1 0.0487739 0.783068 0.701952
59 3 0.0565411 0.694785 0.684621
60 4 0.00786895 0.781885 0.73833
61 1 0.0441271 0.700469 0.579586
62 3 0.0849981 0.670291 0.505816
63 4 0.00135671 0.699134 0.545785
64 1 0.161517 0.734577 0.525878
65 3 0.195842 0.752814 0.607884
66 4 0.163721 0.785205 0.495785
67 1 0.283214 0.72481 0.573107
68 3 0.322525 0.74545 0.495043
69 4 0.300478 0.670291 0.575683
70 1 0.373096 0.824883 0.534153
71 3 0.419937 0.758994 0.568696
72 4 0.38066 0.879097 0.556284
73 1 0.494387 0.784861 0.515144
74 3 0.533596 0.743772 0.587158
75 4 0.527117 0.804777 0.475293
76 1 0.532273 0.828126 0.652498
77 3 0.529356 0.774179 0.725098
78 4 0.529458 0.881157 0.674317
79 1 0.435403 0.757506 0.719126
80 3 0.450497 0.669414 0.741725
81 4 0.384459 0.764412 0.709212
82 1 0.47156 0.640189 0.640632
83 3 0.525896 0.589371 0.685363
84 4 0.47061 0.635764 0.581148
85 1 0.594139 0.657014 0.685207
86 3 0.615032 0.607493 0.760461
87 4 0.625445 0.702033 0.676503
88 1 0.559509 0.659837 0.831031
89 3 0.548384 0.579299 0.873458
90 4 0.529831 0.699859 0.858314
91 1 0.480379 0.546984 0.808938
92 3 0.515891 0.46759 0.83107
93 4 0.442017 0.545916 0.768228
94 1 0.576807 0.465225 0.746917
95 3 0.622562 0.419938 0.807377
96 4 0.601838 0.475182 0.696019
97 1 0.662517 0.50475 0.846916
98 3 0.671438 0.449659 0.922834
99 4 0.672659 0.560757 0.860422
100 1 0.590069 0.460227 0.95929
101 3 0.574263 0.374576 0.981772
102 4 0.56463 0.495708 0.998439
103 1 0.518841 0.35466 0.898087
104 3 0.53441 0.267674 0.872561
105 4 0.472374 0.364694 0.872717
106 1 0.595292 0.294571 0.795433
107 3 0.657939 0.326161 0.74676
108 4 0.57406 0.293083 0.740476
109 1 0.713767 0.341269 0.832397
110 3 0.775735 0.337377 0.770609
111 4 0.729132 0.336424 0.890125
112 1 0.766849 0.234558 0.750117
113 3 0.790184 0.243562 0.660929
114 4 0.756402 0.177826 0.756089
115 1 0.711936 0.289535 0.62783
116 3 0.7389 0.351036 0.567799
117 4 0.661059 0.291748 0.616393
118 1 0.7795 0.411659 0.64235
119 3 0.858664 0.435848 0.653318
120 4 0.76729 0.451566 0.683646
121 1 0.894244 0.343024 0.627283
122 3 0.892887 0.326428 0.53427
123 4 0.903809 0.291519 0.654528
124 1 0.98745 0.349968 0.524356
125 3 0.942577 0.420701 0.498673
126 5 0.960079 0.307176 0.443751
127 1 0.972391 0.424593 0.397619
128 3 0.899637 0.38129 0.385675
129 4 0.998643 0.408683 0.348751
130 1 0.848896 0.467933 0.391374
131 3 0.84218 0.514402 0.309914
132 4 0.828613 0.504292 0.432279
133 1 0.761218 0.463966 0.287002
134 3 0.685412 0.494182 0.272678
135 4 0.749652 0.413033 0.264637
136 1 0.676559 0.539583 0.370414
137 3 0.623139 0.587273 0.319711
138 4 0.682258 0.55862 0.428376
139 1 0.679341 0.659837 0.288095
140 3 0.635112 0.669604 0.209953
141 4 0.716888 0.699668 0.286534
142 1 0.67137 0.588455 0.159055
143 3 0.594139 0.579451 0.130172
144 4 0.707221 0.551677 0.136456
145 1 0.570023 0.508603 0.20402
146 3 0.500119 0.550914 0.192584
147 4 0.568836 0.470108 0.24758
148 1 0.515755 0.62531 0.267174
149 3 0.46074 0.666819 0.211475
150 4 0.536513 0.658998 0.310226
151 1 0.525761 0.705086 0.141491
152 3 0.4642 0.700164 0.0783372
153 4 0.571651 0.722216 0.115457
154 1 0.476376 0.598031 0.0583919
155 3 0.398297 0.588989 0.0425058
156 4 0.498966 0.546183 0.0502732
157 1 0.376285 0.570715 0.149063
158 3 0.30309 0.612605 0.158275
159 4 0.382763 0.539277 0.199571
160 1 0.338297 0.706726 0.179664
161 3 0.342231 0.763344 0.105972
162 4 0.369264 0.746633 0.203474
163 1 0.279008 0.711457 0.0486339
164 3 0.274701 0.791042 0.00156128
165 4 0.242513 0.675136 0.0291959
166 1 0.218634 0.838694 0.0696721
167 3 0.241665 0.925298 0.0879391
168 4 0.174507 0.845714 0.0993365
169 1 0.331038 0.898325 0.11249
170 3 0.343656 0.976804 0.157611
171 5 0.292948 0.85494 0.0626475
172 1 0.287284 0.955591 0.238603
173 3 0.306075 0.969974 0.329118
174 4 0.236781 0.954179 0.251405
175 1 0.381779 0.908512 0.327752
176 3 0.377913 0.864523 0.407884
177 5 0.352881 0.868395 0.298566
178 1 0.302988 0.810461 0.387861
179 3 0.276057 0.762733 0.312451
180 4 0.263949 0.835794 0.416589
181 1 0.269817 0.670711 0.367877
182 3 0.224095 0.657854 0.445902
183 4 0.307194 0.631567 0.36655
184 1 0.158803 0.599786 0.396058
185 3 0.212292 0.534356 0.421624
186 4 0.124614 0.586929 0.354059
187 1 0.149578 0.47667 0.476347
188 3 0.201811 0.41143 0.446799
189 4 0.107621 0.456831 0.506479
190 1 0.156904 0.389684 0.356011
191 3 0.232066 0.364275 0.326581
192 4 0.121494 0.384953 0.312685
193 1 0.262626 0.463202 0.308197
194 3 0.334871 0.428293 0.335363
195 4 0.262049 0.519858 0.293638
196 1 0.316487 0.444737 0.441491
197 3 0.361598 0.368242 0.452888
198 4 0.294305 0.465568 0.491608
199 1 0.291795 0.301782 0.436417
200 3 0.354747 0.255694 0.407806
201 4 0.247838 0.274236 0.423536
202 1 0.349184 0.291137 0.305113
203 3 0.429129 0.276487 0.310656
204 4 0.335312 0.317348 0.250859
205 1 0.448733 0.371447 0.356245
206 3 0.513211 0.322574 0.386612
207 4 0.445918 0.427301 0.376776
208 1 0.469796 0.283278 0.475059
209 3 0.51935 0.21285 0.458509
210 4 0.436218 0.272824 0.521351
211 1 0.461113 0.166152 0.387627
212 3 0.535427 0.138034 0.35847
213 4 0.421701 0.156843 0.349805
214 1 0.544042 0.212773 0.285597
215 3 0.624055 0.20396 0.298556
216 4 0.531628 0.250544 0.242623
217 1 0.629821 0.27519 0.373614
218 3 0.692162 0.229293 0.412373
219 4 0.622935 0.324749 0.407143
220 1 0.638911 0.143947 0.440867
221 3 0.682427 0.071077 0.432123
222 4 0.59848 0.113388 0.458977
223 1 0.684767 0.0706955 0.326386
224 3 0.756402 0.0593262 0.2847
225 4 0.648306 0.0403266 0.298361
ITEM: TIMESTEP
1000
ITEM: NUMBER OF ATOMS
225
ITEM: BOX BOUNDS ss ss ss
-3.042 26.441
-1.748 24.463
10.826 36.446
ITEM: ATOMS id type xs ys zs
1 1 0.32282 0.0438806 0.706507
2 3 0.273738 0.0408766 0.633294
3 4 0.324146 0.0937532 0.736525
4 1 0.197968 0.0253602 0.67832
5 3 0.187217 0.117232 0.68605
6 4 0.165311 -0.003959 0.711983
7 1 0.14154 0.134611 0.606123
8 3 0.09489 0.202624 0.643535
9 4 0.111793 0.123164 0.554809
10 1 0.0627742 0.153517 0.719377
11 3 0.0870304 0.206938 0.793043
12 4 0.0291224 0.110209 0.739094
13 1 0.166135 0.166307 0.806271
14 3 0.210113 0.242618 0.805176
15 4 0.200978 0.124723 0.81789
16 1 0.217926 0.255596 0.706509
17 3 0.200646 0.345018 0.70075
18 4 0.230881 0.236136 0.653575
19 1 0.114076 0.342469 0.699006
20 3 0.114572 0.40992 0.758962
21 4 0.0679241 0.318328 0.686115
22 1 0.121459 0.359248 0.846401
23 3 0.166274 0.424168 0.87602
24 5 0.111842 0.385315 0.794119
25 1 0.243202 0.402429 0.841121
26 3 0.274103 0.47702 0.802922
27 4 0.279593 0.361133 0.831726
28 1 0.22172 0.487178 0.725166
29 3 0.199229 0.573053 0.743313
30 4 0.201022 0.47072 0.671792
31 1 0.126892 0.551793 0.791829
32 3 0.130829 0.614618 0.859303
33 4 0.0781386 0.527124 0.808823
34 1 0.194512 0.575976 0.917324
35 3 0.232545 0.653639 0.92639
36 4 0.221028 0.5347 0.945712
37 1 0.279471 0.656585 0.844073
38 3 0.264769 0.740997 0.812057
39 4 0.320441 0.630565 0.821441
40 1 0.202916 0.718374 0.745049
41 3 0.158167 0.790431 0.76631
42 4 0.172854 0.687801 0.707331
43 1 0.130565 0.76762 0.857459
44 3 0.147951 0.844804 0.905356
45 4 0.116331 0.733154 0.901258
46 1 0.228604 0.860522 0.884272
47 3 0.230142 0.952758 0.868496
48 4 0.279005 0.846057 0.882987
49 1 0.194367 0.948601 0.780163
50 3 0.186438 0.901902 0.698912
51 4 0.229948 0.997962 0.790158
52 1 0.180466 0.980425 0.64242
53 3 0.139377 0.952111 0.568542
54 5 0.139316 1.01446 0.629023
55 1 0.0792424 0.899247 0.621447
56 3 0.109359 0.809052 0.631941
57 4 0.0793046 0.895822 0.557424
58 1 0.0509304 0.7785 0.701644
59 3 0.0719032 0.69653 0.666946
60 4 0.00668303 0.775406 0.72817
61 1 0.04672 0.700765 0.574728
62 3 0.0863805 0.701277 0.493752
63 4 0.00203716 0.699151 0.546187
64 1 0.163137 0.732929 0.5217
65 3 0.205838 0.729361 0.599807
66 4 0.161293 0.78693 0.501222
67 1 0.286 0.721679 0.566277
68 3 0.331553 0.753145 0.492332
69 4 0.302297 0.666493 0.57125
70 1 0.374713 0.82037 0.53708
71 3 0.430779 0.758319 0.570481
72 4 0.381449 0.874945 0.56181
73 1 0.496689 0.779971 0.511009
74 3 0.545316 0.747043 0.580603
75 4 0.528949 0.807148 0.474793
76 1 0.531724 0.816291 0.647641
77 3 0.520961 0.760671 0.724677
78 4 0.532807 0.872737 0.66603
79 1 0.438961 0.749679 0.718648
80 3 0.442927 0.657105 0.724855
81 4 0.387748 0.762458 0.713305
82 1 0.47329 0.634009 0.638697
83 3 0.534361 0.581857 0.674115
84 4 0.475075 0.633359 0.578025
85 1 0.593325 0.647439 0.684994
86 3 0.614247 0.611694 0.767339
87 4 0.625832 0.69226 0.67355
88 1 0.555528 0.647674 0.826305
89 3 0.533147 0.568959 0.871112
90 4 0.531429 0.689653 0.855322
91 1 0.480352 0.532762 0.800614
92 3 0.509981 0.445046 0.805765
93 4 0.442963 0.532741 0.759203
94 1 0.577433 0.455218 0.743186
95 3 0.632232 0.417394 0.798766
96 4 0.603875 0.468778 0.694443
97 1 0.662695 0.496601 0.842837
98 3 0.673783 0.450097 0.925847
99 4 0.674611 0.550806 0.854883
100 1 0.592419 0.445951 0.953863
101 3 0.559412 0.36408 0.972706
102 4 0.567753 0.48612 0.987256
103 1 0.521143 0.34197 0.890159
104 3 0.538474 0.259334 0.855533
105 4 0.475807 0.3565 0.868791
106 1 0.595355 0.282596 0.787827
107 3 0.662838 0.310302 0.747013
108 4 0.575718 0.281458 0.735255
109 1 0.714868 0.326649 0.822029
110 3 0.784882 0.315021 0.77346
111 4 0.728902 0.32455 0.880647
112 1 0.769106 0.226824 0.739797
113 3 0.788062 0.242052 0.649841
114 4 0.757441 0.167125 0.744502
115 1 0.713906 0.278577 0.618924
116 3 0.752333 0.338639 0.563159
117 4 0.660335 0.28592 0.61047
118 1 0.780675 0.398605 0.631488
119 3 0.857798 0.421574 0.623392
120 4 0.769235 0.438346 0.677629
121 1 0.895643 0.331597 0.618586
122 3 0.904744 0.33072 0.525202
123 4 0.901031 0.283208 0.64783
124 1 0.989314 0.35256 0.519384
125 3 0.960869 0.427698 0.483378
126 5 0.958081 0.378599 0.559825
127 1 0.969723 0.417815 0.388879
128 3 0.89594 0.382251 0.377931
129 4 0.995718 0.399825 0.341537
130 1 0.846735 0.46075 0.383749
131 3 0.84119 0.484618 0.292419
132 4 0.834821 0.505804 0.418822
133 1 0.758354 0.458168 0.280672
134 3 0.68616 0.502355 0.269525
135 4 0.744335 0.405835 0.255108
136 1 0.675171 0.527763 0.362864
137 3 0.621314 0.593448 0.332429
138 4 0.683075 0.545563 0.419031
139 1 0.676849 0.646678 0.280337
140 3 0.639189 0.6602 0.199273
141 4 0.713593 0.687549 0.278446
142 1 0.666143 0.57944 0.152144
143 3 0.588974 0.562856 0.131404
144 4 0.702485 0.539622 0.130275
145 1 0.5635 0.50626 0.203863
146 3 0.490131 0.551394 0.206379
147 4 0.56536 0.468787 0.250381
148 1 0.514199 0.626326 0.26105
149 3 0.473855 0.687742 0.21656
150 4 0.538142 0.656645 0.306388
151 1 0.519836 0.690928 0.132334
152 3 0.460111 0.678345 0.0667542
153 4 0.566709 0.704226 0.10489
154 1 0.467428 0.584871 0.0575043
155 3 0.387378 0.571958 0.0536012
156 4 0.492305 0.534376 0.0485026
157 1 0.369306 0.560848 0.150569
158 3 0.302942 0.615191 0.148693
159 4 0.378212 0.53778 0.205133
160 1 0.337051 0.698637 0.171774
161 3 0.34513 0.72451 0.0874864
162 4 0.366509 0.737068 0.196985
163 1 0.269743 0.697655 0.0476696
164 3 0.257898 0.771121 -0.00328755
165 4 0.235816 0.658545 0.0333513
166 1 0.210612 0.824618 0.0579685
167 3 0.250123 0.904043 0.0430709
168 4 0.169959 0.834147 0.0919874
169 1 0.322621 0.885499 0.0917053
170 3 0.332812 0.967425 0.127146
171 5 0.367298 0.8784 0.123902
172 1 0.287417 0.955816 0.211524
173 3 0.32375 0.978975 0.293553
174 4 0.239358 0.953687 0.231648
175 1 0.383903 0.910478 0.298439
176 3 0.37107 0.878168 0.386154
177 5 0.330741 0.910614 0.311003
178 1 0.30469 0.821938 0.373185
179 3 0.275235 0.763011 0.312052
180 4 0.266553 0.849522 0.399837
181 1 0.269751 0.682508 0.36697
182 3 0.21741 0.677029 0.436859
183 4 0.308457 0.642633 0.371243
184 1 0.162673 0.610946 0.402321
185 3 0.208674 0.537674 0.433647
186 4 0.125235 0.594657 0.363118
187 1 0.15171 0.49582 0.492796
188 3 0.194545 0.420116 0.471542
189 4 0.110117 0.479883 0.522841
190 1 0.160703 0.399458 0.384548
191 3 0.225845 0.38065 0.325947
192 4 0.123369 0.390208 0.343076
193 1 0.261264 0.46912 0.325835
194 3 0.335115 0.446899 0.361676
195 4 0.259436 0.522393 0.306341
196 1 0.316938 0.45758 0.458427
197 3 0.355093 0.38198 0.494132
198 4 0.298294 0.483864 0.507862
199 1 0.298347 0.318005 0.464893
200 3 0.357047 0.263946 0.428721
201 4 0.25228 0.288972 0.459862
202 1 0.358934 0.302731 0.337745
203 3 0.440882 0.309191 0.330865
204 4 0.339351 0.319296 0.28515
205 1 0.453676 0.388717 0.385453
206 3 0.517728 0.34319 0.430266
207 4 0.450144 0.44225 0.405374
208 1 0.474358 0.304177 0.502798
209 3 0.514989 0.22331 0.495559
210 4 0.442562 0.296989 0.54962
211 1 0.470298 0.186957 0.423611
212 3 0.537642 0.155781 0.376482
213 4 0.427741 0.16593 0.393466
214 1 0.552302 0.223762 0.316649
215 3 0.632257 0.237007 0.323552
216 4 0.538077 0.258646 0.274677
217 1 0.63617 0.294484 0.399406
218 3 0.687641 0.252022 0.457243
219 4 0.627995 0.342223 0.427874
220 1 0.648997 0.17274 0.4809
221 3 0.710799 0.11708 0.464222
222 4 0.610208 0.139552 0.499717
223 1 0.697101 0.0916818 0.37276
224 3 0.655027 0.0858956 0.29279
225 4 0.661428 0.0581704 0.347696
