LAMMPS protain data file

         312  atoms
         414  bonds
           0  angles
           0  dihedrals
           0  impropers

           5  atom types
           5  bond types
           0  angle types
           0  dihedral types
           0  improper types

-200.0	200.0	xlo xhi
-200.0	200.0	ylo yhi
-200.0	200.0	zlo zhi

Masses

           1	27.0
           2	14.0
           3	28.0
           4	60.0
           5	60.0

Atoms

           1	1	1	1	0.0	5.99800014	-4.6869998	15.27499962
           2	1	1	3	0.0	7.33300018	-2.86500001	16.01300049
           3	1	1	4	0.0	4.53200006	-4.45300007	15.64700031
           4	1	2	1	0.0	7.48500013	-1.66799998	13.50199986
           5	1	2	3	0.0	5.41200018	-0.67799997	12.88199997
           6	1	2	4	0.0	8.03800011	-1.77900004	12.08500004
           7	1	3	1	0.0	6.02299976	1.77600002	14.01399994
           8	1	3	3	0.0	5.24499989	3.04699993	12.02799988
           9	1	3	4	0.0	6.33300018	2.77900004	15.11499977
          10	1	4	1	0.0	7.71600008	2.78200006	10.70699978
          11	1	4	3	0.0	9.54899979	1.15900004	10.66399956
          12	1	4	4	0.0	8.56499958	4.07700014	10.64799976
          13	1	5	1	0.0	9.12800026	0.477	8.01000023
          14	1	5	3	0.0	8.80500031	1.67900002	5.98699999
          15	1	5	4	0.0	8.29500008	-0.78600001	7.59800005
          16	1	6	1	0.0	11.5710001	1.93799996	5.46600008
          17	1	6	3	0.0	13.43099976	0.45199999	5.13600016
          18	1	6	4	0.0	12.63399982	2.94400001	5.98199987
          19	1	7	1	0.0	12.38899994	-0.787	2.9230001
          20	1	7	3	0.0	11.13799953	-2.41199994	4.21500015
          21	1	7	5	0.0	11.67500019	-1.080505	1.47252194
          22	1	8	1	0.0	13.36299992	-3.54399991	5.24100018
          23	1	8	3	0.0	13.90299988	-3.95099998	7.53599977
          24	1	8	4	0.0	14.09899998	-4.79699993	4.80000019
          25	1	9	1	0.0	14.42099953	-1.329	8.16499996
          26	1	9	3	0.0	12.20199966	-0.42300001	8.5369997
          27	1	9	4	0.0	15.23900032	-0.027	8.06599998
          28	1	10	1	0.0	12.13199997	-1.36000001	11.18200016
          29	1	10	3	0.0	13.58399963	-0.57300001	12.89999962
          30	1	10	4	0.0	12.0170002	-2.80699992	11.83600044
          31	1	11	1	0.0	11.85099983	1.57500005	13.56700039
          32	1	11	3	0.0	9.48400021	1.61000001	14.09000015
          33	1	11	4	0.0	12.05000019	3.05100012	12.96899986
          34	1	12	1	0.0	9.95300007	2.11199999	16.75200081
          35	1	12	3	0.0	10.74499989	4.35500002	16.56299973
          36	1	12	4	0.0	10.36900043	1.52699995	18.12999916
          37	1	13	1	0.0	8.52600002	5.47900009	17.92300034
          38	1	13	3	0.0	10.20199966	7.08400011	18.58300018
          39	1	13	4	0.0	7.25899982	5.60900021	18.75900078
          40	1	14	1	0.0	11.46700001	5.51100016	20.48699951
          41	1	14	3	0.0	13.41499996	6.80999994	19.81100082
          42	1	14	4	0.0	11.94799995	4.5710001	21.61400032
          43	1	15	1	0.0	13.97999954	5.28900003	17.61700058
          44	1	15	3	0.0	14.8039999	7.4000001	16.79199982
          45	1	15	4	0.0	14.03299999	4.22800016	16.51399994
          46	1	16	1	0.0	12.32999992	8.27400017	15.85000038
          47	1	16	3	0.0	13.10700035	10.35599995	16.40299988
          48	1	16	4	0.0	10.9460001	8.06000042	15.21399975
          49	1	17	1	0.0	12.02700043	10.42000008	19.04000092
          50	1	17	3	0.0	14.02099991	11.80900002	19.46199989
          51	1	17	4	0.0	11.29899979	9.95199966	20.33600044
          52	1	18	1	0.0	15.78199959	9.78899956	19.7859993
          53	1	18	3	0.0	17.20000076	11.42300034	18.87899971
          54	1	18	4	0.0	16.45400047	8.41300011	20.03499985
          55	1	19	1	0.0	16.86499977	10.73499966	16.18400002
          56	1	19	3	0.0	17.30999947	12.99100018	15.91800022
          57	1	19	4	0.0	16.52700043	9.96100044	14.91100025
          58	1	20	1	0.0	14.65400028	13.80000019	16.10000038
          59	1	20	3	0.0	15.6590004	15.81700039	16.79199982
          60	1	20	4	0.0	13.13000011	13.81400013	16.18799973
          61	1	21	1	0.0	15.97500038	15.10599995	19.39900017
          62	1	21	3	0.0	17.86899948	16.68799973	19.28899956
          63	1	21	4	0.0	15.86800003	14.38599968	20.7310009
          64	1	22	1	0.0	19.5739994	14.77400017	18.29000092
          65	1	22	3	0.0	20.48200035	16.70499992	17.12800026
          66	1	22	4	0.0	20.19599915	13.45199966	17.91699982
          67	1	23	1	0.0	18.85199928	16.45999908	14.84799957
          68	1	23	3	0.0	18.98999977	18.85000038	14.74800014
          69	1	23	5	0.0	18.85300064	15.34941009	12.50025603
          70	1	24	1	0.0	16.78800011	19.29400063	16.44400024
          71	1	24	3	0.0	18.04800034	21.25799942	17.07699966
          72	1	24	4	0.0	15.40799999	19.24699974	17.18099976
          73	1	25	1	0.0	19.58699989	20.08600044	18.97699928
          74	1	25	3	0.0	21.13199997	21.79299927	18.25300026
          75	1	25	4	0.0	20.27099991	19.14500046	19.96500015
          76	1	26	1	0.0	22.10099983	20.4470005	16.09499931
          77	1	26	3	0.0	22.30800056	22.59399986	15.12800026
          78	1	26	4	0.0	22.50399971	19.39500046	15.05799961
          79	1	27	1	0.0	19.57699966	22.8220005	14.32699966
          80	1	27	3	0.0	19.97800064	25.13999939	14.78600025
          81	1	27	4	0.0	18.14900017	22.39100075	13.98799992
          82	1	28	1	0.0	19.3939991	24.99200058	17.47299957
          83	1	28	3	0.0	21.04999924	26.70199966	17.75699997
          84	1	28	4	0.0	18.99799919	24.5	18.88299942
          85	1	29	1	0.0	23.22299957	24.97100067	17.74900055
          86	1	29	3	0.0	25.04000092	25.93400002	16.54599953
          87	1	29	4	0.0	23.97200012	23.77300072	18.26799965
          88	1	30	1	0.0	23.67099953	25.95599937	14.11600018
          89	1	30	3	0.0	25.76600075	25.62400055	12.97299957
          90	1	30	5	0.0	23.13899994	25.26479959	12.3313198
          91	1	31	1	0.0	25.82299995	22.81800079	13.6260004
          92	1	31	3	0.0	24.13100052	21.51000023	12.64400005
          93	1	31	4	0.0	26.23699951	22.11599922	14.91499996
          94	1	32	1	0.0	25.95000076	19.98900032	11.16699982
          95	1	32	3	0.0	28.17300034	19.23999977	11.79500008
          96	1	32	4	0.0	25.8220005	20.36800003	9.65799999
          97	1	33	1	0.0	27.68499947	16.59300041	10.9119997
          98	1	33	3	0.0	26.51399994	15.86699963	8.95499992
          99	1	33	4	0.0	27.48699951	15.61600018	12.06999969
         100	1	34	1	0.0	28.62199974	14.40299988	8.02600002
         101	1	34	3	0.0	29.00799942	16.44799995	6.83300018
         102	1	34	5	0.0	28.70499992	12.24368905	7.06163589
         103	1	35	1	0.0	30.00600052	15.13700008	4.55900002
         104	1	35	3	0.0	29.1970005	16.82799911	3.13599992
         105	1	35	4	0.0	30.47200012	14.02999973	3.59500003
         106	1	36	1	0.0	26.52499962	16.08399963	3.39299989
         107	1	36	3	0.0	24.59900093	17.38199997	4.12200022
         108	1	36	4	0.0	25.62000084	15.07400036	2.648
         109	1	37	1	0.0	25.96500015	18.36199951	6.38500023
         110	1	37	3	0.0	23.56900024	19.04700089	6.40700006
         111	1	37	4	0.0	26.07600021	19.74099922	5.55100012
         112	1	38	1	0.0	22.9810009	17.15600014	8.24600029
         113	1	38	3	0.0	23.91399956	17.74099922	10.3920002
         114	1	38	4	0.0	22.75900078	15.61699963	8.40699959
         115	1	39	1	0.0	20.49600029	18.33799934	9.36600018
         116	1	39	3	0.0	21.37199974	20.38100052	8.47299957
         117	1	39	4	0.0	19.41799927	18.72400093	10.42700005
         118	1	40	1	0.0	19.6590004	20.45800018	6.31400013
         119	1	40	3	0.0	17.42300034	19.57600021	6.10300016
         120	1	40	4	0.0	20.68700027	20.25799942	5.2420001
         121	1	41	1	0.0	16.52000046	21.78199959	4.69999981
         122	1	41	3	0.0	16.7670002	20.09900093	2.96199989
         123	1	41	4	0.0	16.56800079	23.07699966	3.82299995
         124	1	42	1	0.0	14.05000019	19.35700035	3.18499994
         125	1	42	3	0.0	12.26000023	20.87000084	3.02699995
         126	1	42	4	0.0	13.36200047	18.25399971	4.0630002
         127	1	43	1	0.0	11.94499969	20.61899948	0.207
         128	1	43	3	0.0	11.36400032	18.47900009	-0.68199998
         129	1	43	4	0.0	12.63599968	21.2689991	-1.01900005
         130	1	44	1	0.0	8.62199974	18.77700043	-0.198
         131	1	44	3	0.0	6.83099985	18.69599915	-1.78999996
         132	1	44	4	0.0	7.5539999	18.93400002	0.91900003
         133	1	45	1	0.0	8.51000023	18.5	-3.9690001
         134	1	45	3	0.0	6.96000004	17.26199913	-5.20900011
         135	1	45	4	0.0	9.65100002	18.81299973	-4.90299988
         136	1	46	1	0.0	7.05700016	14.97299957	-3.76600003
         137	1	46	3	0.0	4.76399994	14.31999969	-3.57800007
         138	1	46	4	0.0	7.53599977	13.77200031	-2.92799997
         139	1	47	1	0.0	4.0250001	16.46199989	-2.00399995
         140	1	47	3	0.0	2.31200004	15.34700012	-0.898
         141	1	47	5	0.0	5.3829999	16.2332827	-2.1082876
         142	1	48	1	0.0	3.83400011	14.15299988	1.03699994
         143	1	48	3	0.0	3.13700008	16.25	2.04999995
         144	1	48	4	0.0	4.98400021	13.6260004	1.81500006
         145	1	49	1	0.0	0.78500003	15.07299995	3.05299997
         146	1	49	3	0.0	0.63499999	14.5340004	5.37099981
         147	1	49	4	0.0	-0.57300001	14.38199997	2.77200007
         148	1	50	1	0.0	2.47399998	16.31100082	6.17600012
         149	1	50	3	0.0	0.99199998	18.23200035	6.14699984
         150	1	50	4	0.0	3.85500002	16.89500046	6.17600012
         151	1	51	1	0.0	0.13699999	17.86100006	8.74100018
         152	1	51	3	0.0	0.095	19.71500015	10.22900009
         153	1	51	4	0.0	-0.65799999	16.97999954	9.68900013
         154	1	52	1	0.0	2.83500004	20.20000076	10.27499962
         155	1	52	3	0.0	3.727	20.65699959	8.10400009
         156	1	52	4	0.0	3.70099998	19.21899986	11.09300041
         157	1	53	1	0.0	4.07999992	23.3239994	8.49600029
         158	1	53	3	0.0	6.22900009	22.88800049	9.27600002
         159	1	53	4	0.0	3.71799994	24.77700043	8.87800026
         160	1	54	1	0.0	7.52099991	23.9810009	6.91400003
         161	1	54	3	0.0	7.125	25.94000053	8.21500015
         162	1	54	4	0.0	7.62400007	24.05400085	5.41499996
         163	1	55	1	0.0	10.32199955	24.88100052	6.93400002
         164	1	55	3	0.0	10.21100044	23.2840004	8.77000046
         165	1	55	4	0.0	11.55300045	25.67200089	7.38000011
         166	1	56	1	0.0	11.34500027	21.19099998	7.1500001
         167	1	56	3	0.0	13.53499985	21.5720005	6.19899988
         168	1	56	4	0.0	10.61699963	20.18700027	6.24900007
         169	1	57	1	0.0	14.7159996	19.63999939	7.85900021
         170	1	57	3	0.0	13.8380003	17.5340004	8.5010004
         171	1	57	4	0.0	15.34899998	20.18499947	9.18599987
         172	1	58	1	0.0	15.89900017	16.13800049	7.16800022
         173	1	58	3	0.0	18.18300056	16.5	8.01500034
         174	1	58	4	0.0	16.07600021	15.53100014	5.78900003
         175	1	59	1	0.0	18.21699905	14.16100025	9.49800014
         176	1	59	3	0.0	17.19300079	12.04100037	9.55000019
         177	1	59	4	0.0	17.82699966	14.57800007	10.94299984
         178	1	60	1	0.0	19.36400032	10.50699997	9.17500019
         179	1	60	3	0.0	19.32799911	10.2130003	11.54199982
         180	1	60	4	0.0	20.86100006	10.22099972	8.95100021
         181	1	61	1	0.0	17.82500076	7.77099991	11.23999977
         182	1	61	3	0.0	18.34399986	6.1420002	9.59300041
         183	1	61	4	0.0	16.32500076	7.6789999	11.45300007
         184	1	62	1	0.0	20.14999962	4.66499996	11.37899971
         185	1	62	3	0.0	18.95499992	3.26600003	12.94499969
         186	1	62	4	0.0	21.57500076	4.78000021	11.98999977
         187	1	63	1	0.0	18.96800041	1.11300004	11.24100018
         188	1	63	3	0.0	18.79599953	-0.24600001	13.21800041
         189	1	63	4	0.0	19.14900017	0.154	10.06799984
         190	1	64	1	0.0	21.38599968	0.25	14.01000023
         191	1	64	3	0.0	21.12299919	0.175	16.3409996
         192	1	64	4	0.0	22.82500076	0.61299998	14.03800011
         193	1	65	1	0.0	19.64299965	2.46799994	16.53100014
         194	1	65	3	0.0	20.2670002	4.2329998	18.03199959
         195	1	65	5	0.0	20.12000084	2.17543536	16.33524953
         196	1	66	1	0.0	22.73900032	4.65600014	16.96500015
         197	1	66	3	0.0	21.70800018	6.03000021	15.36800003
         198	1	66	4	0.0	24.11499977	4.44999981	16.40299988
         199	1	67	1	0.0	22.36400032	8.42800045	16.56800079
         200	1	67	3	0.0	24.67499924	8.49800014	15.75500011
         201	1	67	4	0.0	22.33300018	9.48799992	17.71100044
         202	1	68	1	0.0	24.03499985	9.72700024	13.41899967
         203	1	68	3	0.0	24.71699905	11.74400043	14.46399975
         204	1	68	4	0.0	23.27000046	10.33899975	12.21700001
         205	1	69	1	0.0	27.42900085	11.25800037	14.04500008
         206	1	69	3	0.0	29.52300072	12.08199978	13.27200031
         207	1	69	4	0.0	27.96199989	10.67700005	15.34899998
         208	1	70	1	0.0	29.13500023	11.2489996	10.65400028
         209	1	70	3	0.0	28.60700035	8.91499996	10.36400032
         210	1	70	5	0.0	28.15399933	11.54959081	9.35568032
         211	1	71	1	0.0	30.00399971	8.51500034	8.20300007
         212	1	71	3	0.0	28.08099937	9.39900017	6.90399981
         213	1	71	5	0.0	29.96899986	6.77882463	7.61694711
         214	1	72	1	0.0	27.42200089	7.02299976	5.94799995
         215	1	72	3	0.0	25.8409996	6.6869998	7.66800022
         216	1	72	4	0.0	27.54700089	5.53999996	5.41699982
         217	1	73	1	0.0	23.93899918	8.33500004	6.58300018
         218	1	73	3	0.0	21.7670002	7.4289999	6.76900005
         219	1	73	4	0.0	23.57900047	9.72500038	5.98000002
         220	1	74	1	0.0	22.13199997	5.39599991	5.03100014
         221	1	74	3	0.0	21.27499962	7.24800014	3.61800003
         222	1	74	5	0.0	23.25300026	3.69828532	4.96245349
         223	1	75	1	0.0	18.92700005	6.04400015	3.11599994
         224	1	75	3	0.0	16.86199951	7.14599991	3.23699999
         225	1	75	4	0.0	18.40600014	4.77699995	2.38499999
         226	1	76	1	0.0	16.36300087	6.76200008	5.88199997
         227	1	76	3	0.0	17.61899948	8.40799999	7.13199997
         228	1	76	4	0.0	15.95899963	5.65999985	6.93499994
         229	1	77	1	0.0	15.5	10.15499973	7.34600019
         230	1	77	3	0.0	13.07999992	10.07299995	7.74700022
         231	1	77	4	0.0	15.40200043	11.26399994	6.25899982
         232	1	78	1	0.0	13.26000023	11.80599976	9.9659996
         233	1	78	3	0.0	14.28600025	13.83399963	9.20699978
         234	1	78	4	0.0	13.56999969	11.83399963	11.49499989
         235	1	79	1	0.0	11.8409996	15.13599968	8.81700039
         236	1	79	3	0.0	10.04899979	15.29599953	10.42099953
         237	1	79	4	0.0	10.96700001	15.1590004	7.58799982
         238	1	80	1	0.0	11.01299953	17.69000053	11.53100014
         239	1	80	3	0.0	11.63300037	19.52199936	10.06700039
         240	1	80	4	0.0	11.78499985	17.58499908	12.83300018
         241	1	81	1	0.0	10.03299999	21.37299919	11.28800011
         242	1	81	3	0.0	11.42199993	21.87700081	13.2840004
         243	1	81	4	0.0	8.58399963	21.67300034	10.9659996
         244	1	82	1	0.0	11.21500015	24.60499954	12.77700043
         245	1	82	3	0.0	11.58500004	25.00099945	15.03899956
         246	1	82	4	0.0	10.90999985	26.00399971	12.11999989
         247	1	83	1	0.0	9.0369997	24.00699997	15.8920002
         248	1	83	3	0.0	8.64599991	22.30400085	17.47800064
         249	1	83	4	0.0	7.55800009	24.40999985	15.86999989
         250	1	84	1	0.0	10.5010004	20.53899956	16.51099968
         251	1	84	3	0.0	9.14299965	18.84499931	17.52099991
         252	1	84	4	0.0	11.22799969	20.72100067	17.83799934
         253	1	85	1	0.0	7.34000015	18.76099968	15.34200001
         254	1	85	3	0.0	8.40400028	18.17399979	13.21700001
         255	1	85	4	0.0	6.09399986	19.49399948	14.81400013
         256	1	86	1	0.0	7.75500011	15.49199963	13.55900002
         257	1	86	3	0.0	5.56099987	15.58699989	12.55900002
         258	1	86	4	0.0	7.5079999	14.10099983	14.15100002
         259	1	87	1	0.0	6.55499983	15.69499969	9.94400024
         260	1	87	3	0.0	5.20699978	13.95899963	8.90299988
         261	1	87	4	0.0	7.20100021	16.56699944	8.86600018
         262	1	88	1	0.0	7.32000017	12.09799957	8.83899975
         263	1	88	3	0.0	9.68400002	12.00500011	9.21100044
         264	1	88	5	0.0	7.44799995	10.42610777	7.76895918
         265	1	89	1	0.0	9.79899979	9.27900028	8.21199989
         266	1	89	3	0.0	8.79199982	8.36499977	6.32000017
         267	1	89	4	0.0	9.85499954	8.11999989	9.24699974
         268	1	90	1	0.0	11.01599979	8.94900036	4.61899996
         269	1	90	3	0.0	13.1960001	8.17000008	5.15299988
         270	1	90	4	0.0	10.88500023	10.30700016	3.84699988
         271	1	91	1	0.0	13.63000011	7.04699993	2.67400002
         272	1	91	3	0.0	12.92700005	7.37400007	0.33500001
         273	1	91	4	0.0	13.39700031	5.49599981	3.00200009
         274	1	92	1	0.0	15.58899975	7.00400019	-0.52399999
         275	1	92	3	0.0	15.52600002	5.30600023	-2.24499989
         276	1	92	4	0.0	17.03800011	7.3579998	-0.667
         277	1	93	1	0.0	15.09500027	3.17400002	-0.588
         278	1	93	3	0.0	12.76200008	3.398	-1.06099999
         279	1	93	4	0.0	15.02099991	2.19499993	0.65700001
         280	1	94	1	0.0	12.89999962	2.24699998	-3.5539999
         281	1	94	3	0.0	11.42300034	3.5250001	-4.9749999
         282	1	94	5	0.0	14.09700012	1.16409679	-3.64766532
         283	1	95	1	0.0	13.03199959	5.76100016	-5.12400007
         284	1	95	3	0.0	15.44400024	5.66200018	-5.61299992
         285	1	95	4	0.0	12.77600002	6.96899986	-4.17600012
         286	1	96	1	0.0	15.34399986	6.85200024	-7.96799994
         287	1	96	3	0.0	15.42700005	9.11900043	-7.04699993
         288	1	96	4	0.0	14.98099995	6.96400023	-9.44299984
         289	1	97	1	0.0	18.18000031	9.2489996	-7.47300005
         290	1	97	3	0.0	18.0909996	9.05300045	-5.17500019
         291	1	97	5	0.0	17.33600044	9.3577884	-7.5657325
         292	1	98	1	0.0	17.77300072	11.75300026	-4.67299986
         293	1	98	3	0.0	16.06699944	12.52200031	-3.30500007
         294	1	98	4	0.0	18.65200043	12.98700047	-4.49800014
         295	1	99	1	0.0	13.93599987	11.25300026	-4.5539999
         296	1	99	3	0.0	14.59300041	9.68200016	-2.88800001
         297	1	99	4	0.0	13.0710001	10.86699963	-5.71799994
         298	1	100	1	0.0	12.06499958	9.8210001	-1.602
         299	1	100	3	0.0	9.8380003	9.56700039	-2.58100009
         300	1	100	4	0.0	11.90600014	10.83100033	-0.44299999
         301	1	101	1	0.0	9.13000011	7.6170001	-0.713
         302	1	101	3	0.0	9.90600014	7.7579999	1.61300004
         303	1	101	4	0.0	8.97500038	6.17600012	-1.176
         304	1	102	1	0.0	7.50199986	7.57999992	2.72900009
         305	1	102	3	0.0	7.33099985	5.15899992	2.59899998
         306	1	102	4	0.0	6.04699993	7.93599987	3.05900002
         307	1	103	1	0.0	8.17300034	4.82299995	5.22100019
         308	1	103	3	0.0	5.93200016	5.44899988	5.79199982
         309	1	103	4	0.0	9.07299995	4.96600008	6.42600012
         310	1	104	1	0.0	4.96400023	2.89599991	6.00400019
         311	1	104	3	0.0	3.52099991	2.18600011	7.76000023
         312	1	104	4	0.0	4.50500011	1.87100005	4.90500021

Bond Coeffs

           1	200.0	3.77
           2	200.0	2.41
           3	200.0	2.50
           4	200.0	1.54
           5	200.0	1.54
Bonds

           1	2	1	2
           2	4	1	3
           3	1	1	4
           4	3	2	4
           5	2	4	5
           6	4	4	6
           7	1	4	7
           8	3	5	7
           9	2	7	8
          10	4	7	9
          11	1	7	10
          12	3	8	10
          13	2	10	11
          14	4	10	12
          15	1	10	13
          16	3	11	13
          17	2	13	14
          18	4	13	15
          19	1	13	16
          20	3	14	16
          21	2	16	17
          22	4	16	18
          23	1	16	19
          24	3	17	19
          25	2	19	20
          26	5	19	21
          27	1	19	22
          28	3	20	22
          29	2	22	23
          30	4	22	24
          31	1	22	25
          32	3	23	25
          33	2	25	26
          34	4	25	27
          35	1	25	28
          36	3	26	28
          37	2	28	29
          38	4	28	30
          39	1	28	31
          40	3	29	31
          41	2	31	32
          42	4	31	33
          43	1	31	34
          44	3	32	34
          45	2	34	35
          46	4	34	36
          47	1	34	37
          48	3	35	37
          49	2	37	38
          50	4	37	39
          51	1	37	40
          52	3	38	40
          53	2	40	41
          54	4	40	42
          55	1	40	43
          56	3	41	43
          57	2	43	44
          58	4	43	45
          59	1	43	46
          60	3	44	46
          61	2	46	47
          62	4	46	48
          63	1	46	49
          64	3	47	49
          65	2	49	50
          66	4	49	51
          67	1	49	52
          68	3	50	52
          69	2	52	53
          70	4	52	54
          71	1	52	55
          72	3	53	55
          73	2	55	56
          74	4	55	57
          75	1	55	58
          76	3	56	58
          77	2	58	59
          78	4	58	60
          79	1	58	61
          80	3	59	61
          81	2	61	62
          82	4	61	63
          83	1	61	64
          84	3	62	64
          85	2	64	65
          86	4	64	66
          87	1	64	67
          88	3	65	67
          89	2	67	68
          90	5	67	69
          91	1	67	70
          92	3	68	70
          93	2	70	71
          94	4	70	72
          95	1	70	73
          96	3	71	73
          97	2	73	74
          98	4	73	75
          99	1	73	76
         100	3	74	76
         101	2	76	77
         102	4	76	78
         103	1	76	79
         104	3	77	79
         105	2	79	80
         106	4	79	81
         107	1	79	82
         108	3	80	82
         109	2	82	83
         110	4	82	84
         111	1	82	85
         112	3	83	85
         113	2	85	86
         114	4	85	87
         115	1	85	88
         116	3	86	88
         117	2	88	89
         118	5	88	90
         119	1	88	91
         120	3	89	91
         121	2	91	92
         122	4	91	93
         123	1	91	94
         124	3	92	94
         125	2	94	95
         126	4	94	96
         127	1	94	97
         128	3	95	97
         129	2	97	98
         130	4	97	99
         131	1	97	100
         132	3	98	100
         133	2	100	101
         134	5	100	102
         135	1	100	103
         136	3	101	103
         137	2	103	104
         138	4	103	105
         139	1	103	106
         140	3	104	106
         141	2	106	107
         142	4	106	108
         143	1	106	109
         144	3	107	109
         145	2	109	110
         146	4	109	111
         147	1	109	112
         148	3	110	112
         149	2	112	113
         150	4	112	114
         151	1	112	115
         152	3	113	115
         153	2	115	116
         154	4	115	117
         155	1	115	118
         156	3	116	118
         157	2	118	119
         158	4	118	120
         159	1	118	121
         160	3	119	121
         161	2	121	122
         162	4	121	123
         163	1	121	124
         164	3	122	124
         165	2	124	125
         166	4	124	126
         167	1	124	127
         168	3	125	127
         169	2	127	128
         170	4	127	129
         171	1	127	130
         172	3	128	130
         173	2	130	131
         174	4	130	132
         175	1	130	133
         176	3	131	133
         177	2	133	134
         178	4	133	135
         179	1	133	136
         180	3	134	136
         181	2	136	137
         182	4	136	138
         183	1	136	139
         184	3	137	139
         185	2	139	140
         186	5	139	141
         187	1	139	142
         188	3	140	142
         189	2	142	143
         190	4	142	144
         191	1	142	145
         192	3	143	145
         193	2	145	146
         194	4	145	147
         195	1	145	148
         196	3	146	148
         197	2	148	149
         198	4	148	150
         199	1	148	151
         200	3	149	151
         201	2	151	152
         202	4	151	153
         203	1	151	154
         204	3	152	154
         205	2	154	155
         206	4	154	156
         207	1	154	157
         208	3	155	157
         209	2	157	158
         210	4	157	159
         211	1	157	160
         212	3	158	160
         213	2	160	161
         214	4	160	162
         215	1	160	163
         216	3	161	163
         217	2	163	164
         218	4	163	165
         219	1	163	166
         220	3	164	166
         221	2	166	167
         222	4	166	168
         223	1	166	169
         224	3	167	169
         225	2	169	170
         226	4	169	171
         227	1	169	172
         228	3	170	172
         229	2	172	173
         230	4	172	174
         231	1	172	175
         232	3	173	175
         233	2	175	176
         234	4	175	177
         235	1	175	178
         236	3	176	178
         237	2	178	179
         238	4	178	180
         239	1	178	181
         240	3	179	181
         241	2	181	182
         242	4	181	183
         243	1	181	184
         244	3	182	184
         245	2	184	185
         246	4	184	186
         247	1	184	187
         248	3	185	187
         249	2	187	188
         250	4	187	189
         251	1	187	190
         252	3	188	190
         253	2	190	191
         254	4	190	192
         255	1	190	193
         256	3	191	193
         257	2	193	194
         258	5	193	195
         259	1	193	196
         260	3	194	196
         261	2	196	197
         262	4	196	198
         263	1	196	199
         264	3	197	199
         265	2	199	200
         266	4	199	201
         267	1	199	202
         268	3	200	202
         269	2	202	203
         270	4	202	204
         271	1	202	205
         272	3	203	205
         273	2	205	206
         274	4	205	207
         275	1	205	208
         276	3	206	208
         277	2	208	209
         278	5	208	210
         279	1	208	211
         280	3	209	211
         281	2	211	212
         282	5	211	213
         283	1	211	214
         284	3	212	214
         285	2	214	215
         286	4	214	216
         287	1	214	217
         288	3	215	217
         289	2	217	218
         290	4	217	219
         291	1	217	220
         292	3	218	220
         293	2	220	221
         294	5	220	222
         295	1	220	223
         296	3	221	223
         297	2	223	224
         298	4	223	225
         299	1	223	226
         300	3	224	226
         301	2	226	227
         302	4	226	228
         303	1	226	229
         304	3	227	229
         305	2	229	230
         306	4	229	231
         307	1	229	232
         308	3	230	232
         309	2	232	233
         310	4	232	234
         311	1	232	235
         312	3	233	235
         313	2	235	236
         314	4	235	237
         315	1	235	238
         316	3	236	238
         317	2	238	239
         318	4	238	240
         319	1	238	241
         320	3	239	241
         321	2	241	242
         322	4	241	243
         323	1	241	244
         324	3	242	244
         325	2	244	245
         326	4	244	246
         327	1	244	247
         328	3	245	247
         329	2	247	248
         330	4	247	249
         331	1	247	250
         332	3	248	250
         333	2	250	251
         334	4	250	252
         335	1	250	253
         336	3	251	253
         337	2	253	254
         338	4	253	255
         339	1	253	256
         340	3	254	256
         341	2	256	257
         342	4	256	258
         343	1	256	259
         344	3	257	259
         345	2	259	260
         346	4	259	261
         347	1	259	262
         348	3	260	262
         349	2	262	263
         350	5	262	264
         351	1	262	265
         352	3	263	265
         353	2	265	266
         354	4	265	267
         355	1	265	268
         356	3	266	268
         357	2	268	269
         358	4	268	270
         359	1	268	271
         360	3	269	271
         361	2	271	272
         362	4	271	273
         363	1	271	274
         364	3	272	274
         365	2	274	275
         366	4	274	276
         367	1	274	277
         368	3	275	277
         369	2	277	278
         370	4	277	279
         371	1	277	280
         372	3	278	280
         373	2	280	281
         374	5	280	282
         375	1	280	283
         376	3	281	283
         377	2	283	284
         378	4	283	285
         379	1	283	286
         380	3	284	286
         381	2	286	287
         382	4	286	288
         383	1	286	289
         384	3	287	289
         385	2	289	290
         386	5	289	291
         387	1	289	292
         388	3	290	292
         389	2	292	293
         390	4	292	294
         391	1	292	295
         392	3	293	295
         393	2	295	296
         394	4	295	297
         395	1	295	298
         396	3	296	298
         397	2	298	299
         398	4	298	300
         399	1	298	301
         400	3	299	301
         401	2	301	302
         402	4	301	303
         403	1	301	304
         404	3	302	304
         405	2	304	305
         406	4	304	306
         407	1	304	307
         408	3	305	307
         409	2	307	308
         410	4	307	309
         411	1	307	310
         412	3	308	310
         413	2	310	311
         414	4	310	312

