ITEM: TIMESTEP
0
ITEM: NUMBER OF ATOMS
312
ITEM: BOX BOUNDS ss ss ss
-0.698 30.512
-4.837 26.742
-9.483 21.654
ITEM: ATOMS id type xs ys zs
1 1 0.214547 0.00475 0.795131
2 3 0.257321 0.0624466 0.818833
3 4 0.167574 0.01216 0.807078
4 1 0.262192 0.100351 0.738189
5 3 0.195771 0.131701 0.718277
6 4 0.27991 0.0968365 0.692681
7 1 0.215348 0.209411 0.754633
8 3 0.19042 0.24966 0.69085
9 4 0.22528 0.241173 0.789993
10 1 0.269593 0.241268 0.648425
11 3 0.328324 0.189873 0.647044
12 4 0.296796 0.282276 0.64653
13 1 0.314835 0.168276 0.561807
14 3 0.304486 0.20634 0.496837
15 4 0.288145 0.128281 0.548576
16 1 0.393111 0.214541 0.480104
17 3 0.452707 0.167485 0.469506
18 4 0.427171 0.246398 0.496676
19 1 0.419321 0.12825 0.398433
20 3 0.379237 0.0767915 0.439927
21 5 0.396443 0.118955 0.351849
22 1 0.450529 0.0409449 0.472878
23 3 0.467831 0.0280566 0.546584
24 4 0.474111 0.00126666 0.458715
25 1 0.484428 0.111086 0.566785
26 3 0.413329 0.139776 0.578733
27 4 0.510638 0.152316 0.563606
28 1 0.411086 0.110105 0.66368
29 3 0.45761 0.135026 0.718855
30 4 0.407401 0.0642832 0.684684
31 1 0.402083 0.203046 0.740277
32 3 0.326242 0.204155 0.757074
33 4 0.408459 0.249786 0.721071
34 1 0.341269 0.220051 0.842567
35 3 0.366645 0.29108 0.836497
36 4 0.354598 0.201526 0.886823
37 1 0.295546 0.326673 0.880175
38 3 0.349247 0.377498 0.901371
39 4 0.25495 0.330789 0.907024
40 1 0.389779 0.327686 0.96252
41 3 0.452195 0.368821 0.94081
42 4 0.405191 0.29792 0.998715
43 1 0.470298 0.320656 0.870347
44 3 0.4967 0.387504 0.843851
45 4 0.471996 0.287058 0.834923
46 1 0.41743 0.415181 0.813598
47 3 0.442326 0.481111 0.831358
48 4 0.373086 0.408404 0.793172
49 1 0.407722 0.483138 0.916048
50 3 0.471612 0.527122 0.929601
51 4 0.384396 0.468318 0.957671
52 1 0.528036 0.463156 0.940007
53 3 0.57347 0.514899 0.910878
54 4 0.549567 0.419583 0.948004
55 1 0.562736 0.493113 0.824325
56 3 0.576995 0.564552 0.815782
57 4 0.551906 0.468603 0.783441
58 1 0.491894 0.590171 0.821627
59 3 0.524095 0.654042 0.843851
60 4 0.443063 0.590614 0.824453
61 1 0.53422 0.631527 0.927578
62 3 0.594905 0.681624 0.924045
63 4 0.530791 0.608727 0.970357
64 1 0.649535 0.621014 0.891961
65 3 0.678629 0.682162 0.854642
66 4 0.669465 0.579151 0.879982
67 1 0.626402 0.674404 0.781418
68 3 0.630823 0.750087 0.778206
69 5 0.626434 0.639235 0.706017
70 1 0.560269 0.764147 0.832675
71 3 0.600641 0.82634 0.853004
72 4 0.516053 0.762659 0.856345
73 1 0.649952 0.789227 0.914025
74 3 0.699455 0.843282 0.890773
75 4 0.671868 0.759429 0.945756
76 1 0.730503 0.800659 0.821466
77 3 0.737136 0.868647 0.79041
78 4 0.743416 0.767345 0.788162
79 1 0.649632 0.875867 0.764685
80 3 0.66248 0.94927 0.779426
81 4 0.603877 0.862219 0.753798
82 1 0.643768 0.944583 0.865722
83 3 0.696828 0.998733 0.874843
84 4 0.63108 0.929003 0.911006
85 1 0.766453 0.943918 0.874587
86 3 0.824672 0.974413 0.835951
87 4 0.790452 0.905982 0.891255
88 1 0.780807 0.97511 0.757909
89 3 0.847933 0.964597 0.7212
90 5 0.763762 0.953222 0.700592
91 1 0.84976 0.87574 0.742172
92 3 0.795546 0.83432 0.710634
93 4 0.863025 0.85351 0.783569
94 1 0.853829 0.786155 0.663198
95 3 0.925056 0.762437 0.683367
96 4 0.849728 0.798157 0.614735
97 1 0.90942 0.678616 0.655008
98 3 0.8719 0.655626 0.592157
99 4 0.903076 0.647677 0.692199
100 1 0.939442 0.609266 0.562321
101 3 0.95181 0.674024 0.524007
102 5 0.942102 0.540888 0.53135
103 1 0.983787 0.632509 0.450975
104 3 0.957866 0.686057 0.405273
105 4 0.998718 0.597454 0.420015
106 1 0.872252 0.662497 0.413527
107 3 0.810542 0.7036 0.43694
108 4 0.843255 0.630514 0.389601
109 1 0.85431 0.734634 0.509619
110 3 0.777539 0.756325 0.510325
111 4 0.857866 0.778302 0.482834
112 1 0.758699 0.696444 0.569387
113 3 0.788593 0.714969 0.638308
114 4 0.751586 0.647709 0.574558
115 1 0.679077 0.733874 0.605357
116 3 0.707145 0.798569 0.576677
117 4 0.644537 0.746097 0.639432
118 1 0.652259 0.801007 0.507339
119 3 0.580615 0.773077 0.500562
120 4 0.685197 0.794674 0.47291
121 1 0.551682 0.842934 0.455503
122 3 0.559596 0.789639 0.399685
123 4 0.55322 0.883942 0.427337
124 1 0.472541 0.766142 0.406847
125 3 0.415187 0.814054 0.401773
126 4 0.450497 0.731214 0.435045
127 1 0.405095 0.806105 0.311205
128 3 0.386479 0.738339 0.282654
129 4 0.427235 0.826689 0.271831
130 1 0.298622 0.747775 0.298198
131 3 0.241237 0.74521 0.247069
132 4 0.264402 0.752747 0.334072
133 1 0.295034 0.739004 0.177088
134 3 0.24537 0.6998 0.137264
135 4 0.331592 0.748915 0.147092
136 1 0.248478 0.627316 0.183608
137 3 0.175008 0.606637 0.189646
138 4 0.263826 0.589284 0.210521
139 1 0.15133 0.674467 0.240197
140 3 0.0964434 0.639159 0.275717
141 5 0.194841 0.667225 0.236847
142 1 0.14521 0.601349 0.337862
143 3 0.122877 0.667754 0.370395
144 4 0.182057 0.584661 0.362848
145 1 0.0475168 0.630482 0.402608
146 3 0.0427107 0.613414 0.477053
147 4 0.00400513 0.608601 0.393583
148 1 0.101634 0.669686 0.502907
149 3 0.0541493 0.730517 0.501975
150 4 0.145883 0.688179 0.502907
151 1 0.0267542 0.718769 0.585284
152 3 0.0254085 0.777479 0.633073
153 4 0.00128164 0.690871 0.61573
154 1 0.113201 0.792837 0.634551
155 3 0.141781 0.807309 0.564826
156 4 0.140948 0.761772 0.660822
157 1 0.153092 0.891764 0.577416
158 3 0.221948 0.877957 0.602467
159 4 0.141493 0.937775 0.589684
160 1 0.263345 0.912569 0.526608
161 3 0.250657 0.974603 0.568391
162 4 0.266645 0.91488 0.478466
163 1 0.353092 0.941068 0.527251
164 3 0.349535 0.890497 0.586216
165 4 0.392534 0.966117 0.541574
166 1 0.38587 0.824219 0.534188
167 3 0.45604 0.836284 0.503645
168 4 0.362544 0.792425 0.505251
169 1 0.49388 0.775104 0.556958
170 3 0.465748 0.708414 0.577577
171 4 0.514162 0.792362 0.599576
172 1 0.531785 0.664207 0.534766
173 3 0.604966 0.675671 0.561968
174 4 0.537456 0.644986 0.490478
175 1 0.606056 0.601602 0.609596
176 3 0.573246 0.534469 0.611266
177 4 0.59356 0.614807 0.656004
178 1 0.642807 0.485893 0.599223
179 3 0.641653 0.476583 0.675242
180 4 0.690772 0.476836 0.592029
181 1 0.593496 0.399253 0.665543
182 3 0.610125 0.347668 0.612647
183 4 0.545434 0.396339 0.672383
184 1 0.667991 0.300896 0.670007
185 3 0.629702 0.256595 0.720301
186 4 0.713649 0.304538 0.68963
187 1 0.630119 0.188416 0.665575
188 3 0.624607 0.145381 0.729068
189 4 0.635918 0.158048 0.627902
190 1 0.707594 0.161088 0.754504
191 3 0.699167 0.158713 0.829367
192 4 0.753701 0.172583 0.755404
193 1 0.651746 0.231325 0.835469
194 3 0.67174 0.287216 0.883675
195 5 0.66703 0.22206 0.829182
196 1 0.750945 0.300611 0.849407
197 3 0.717911 0.344121 0.798118
198 4 0.795034 0.294088 0.831358
199 1 0.73893 0.420058 0.836657
200 3 0.812977 0.422274 0.810547
201 4 0.737937 0.453624 0.873366
202 1 0.79247 0.461193 0.735524
203 3 0.814322 0.525064 0.769085
204 4 0.767959 0.480573 0.69692
205 1 0.901218 0.509674 0.755628
206 3 0.968311 0.535767 0.730803
207 4 0.918295 0.491276 0.797508
208 1 0.95588 0.509389 0.646723
209 3 0.938962 0.435479 0.637409
210 5 0.924447 0.518908 0.605026
211 1 0.983723 0.422813 0.568006
212 3 0.922108 0.450806 0.526287
213 5 0.982602 0.367834 0.549184
214 1 0.900993 0.375566 0.495584
215 3 0.850336 0.364926 0.550824
216 4 0.904998 0.328604 0.47853
217 1 0.789394 0.417113 0.515978
218 3 0.719801 0.388423 0.521951
219 4 0.77786 0.461129 0.496612
220 1 0.731496 0.324044 0.466134
221 3 0.704037 0.382691 0.420753
222 5 0.767414 0.270284 0.463932
223 1 0.628805 0.344564 0.404631
224 3 0.56264 0.379461 0.408517
225 4 0.612112 0.304443 0.381154
226 1 0.546652 0.367301 0.493464
227 3 0.586895 0.419424 0.53361
228 4 0.533707 0.332404 0.527283
229 1 0.519 0.474746 0.540482
230 3 0.441461 0.472149 0.553361
231 4 0.51586 0.509864 0.505572
232 1 0.447228 0.527027 0.624627
233 3 0.480103 0.591247 0.60025
234 4 0.457161 0.527914 0.673732
235 1 0.401762 0.632477 0.587725
236 3 0.344345 0.637544 0.639239
237 4 0.373758 0.633206 0.548254
238 1 0.375232 0.713354 0.674888
239 3 0.395098 0.771367 0.62787
240 4 0.399968 0.710029 0.716704
241 1 0.343832 0.829982 0.667084
242 3 0.388337 0.845942 0.731188
243 4 0.297405 0.839482 0.656743
244 1 0.381705 0.932328 0.714905
245 3 0.39356 0.944868 0.787552
246 4 0.371932 0.97663 0.693805
247 1 0.311919 0.913392 0.814947
248 3 0.299391 0.859464 0.865883
249 4 0.264531 0.926153 0.81424
250 1 0.358827 0.803572 0.834827
251 3 0.315316 0.749929 0.867264
252 4 0.382121 0.809335 0.877445
253 1 0.257546 0.747269 0.797283
254 3 0.291637 0.72868 0.729036
255 4 0.217623 0.77048 0.780326
256 1 0.270843 0.643751 0.74002
257 3 0.200545 0.646759 0.707904
258 4 0.262929 0.599702 0.759033
259 1 0.232393 0.650179 0.62392
260 3 0.189202 0.595206 0.590487
261 4 0.253092 0.677792 0.589299
262 1 0.256905 0.536274 0.588432
263 3 0.33265 0.533329 0.600379
264 5 0.261006 0.483331 0.554066
265 1 0.336334 0.447006 0.568295
266 3 0.304069 0.418063 0.507531
267 4 0.338129 0.410304 0.601535
268 1 0.375328 0.436556 0.452902
269 3 0.445178 0.411888 0.470052
270 4 0.371131 0.479559 0.428108
271 1 0.459084 0.376326 0.390436
272 3 0.436559 0.386681 0.315316
273 4 0.451618 0.327211 0.40097
274 1 0.521852 0.374964 0.287728
275 3 0.519833 0.321194 0.232457
276 4 0.568279 0.386174 0.283136
277 1 0.506024 0.253681 0.285673
278 3 0.431272 0.260775 0.270482
279 4 0.503653 0.22268 0.325658
280 1 0.435694 0.224326 0.190417
281 3 0.388369 0.264796 0.14478
282 5 0.474047 0.190034 0.187408
283 1 0.439923 0.335603 0.139994
284 3 0.517206 0.332468 0.124289
285 4 0.431721 0.373856 0.17044
286 1 0.514002 0.370151 0.0486559
287 3 0.516661 0.441939 0.0782349
288 4 0.502371 0.373698 0.00128465
289 1 0.60487 0.446056 0.0645534
290 3 0.602019 0.439849 0.138356
291 5 0.577828 0.449501 0.0615752
292 1 0.59183 0.525349 0.154479
293 3 0.537168 0.549701 0.198413
294 4 0.619994 0.564426 0.160099
295 1 0.468888 0.509516 0.1583
296 3 0.489939 0.459768 0.211806
297 4 0.441173 0.497292 0.120917
298 1 0.408939 0.464169 0.253107
299 3 0.337584 0.456126 0.221666
300 4 0.403845 0.496153 0.29033
301 1 0.314899 0.394376 0.281658
302 3 0.339763 0.398841 0.356361
303 4 0.309933 0.348744 0.266789
304 1 0.262736 0.393204 0.392202
305 3 0.257257 0.316539 0.388027
306 4 0.216117 0.404478 0.402801
307 1 0.284236 0.305899 0.472236
308 3 0.212432 0.325723 0.490574
309 4 0.313073 0.310428 0.510936
310 1 0.181416 0.244878 0.497383
311 3 0.135181 0.222395 0.553778
312 4 0.166709 0.21242 0.462087
ITEM: TIMESTEP
1000
ITEM: NUMBER OF ATOMS
312
ITEM: BOX BOUNDS ss ss ss
-0.698 30.512
-4.837 26.742
-9.483 21.654
ITEM: ATOMS id type xs ys zs
1 1 0.233051 0.000102981 0.829381
2 3 0.282046 0.058381 0.83879
3 4 0.192644 0.00980774 0.856232
4 1 0.266342 0.0969096 0.769376
5 3 0.19803 0.132156 0.75738
6 4 0.279301 0.0931103 0.721694
7 1 0.217767 0.205693 0.779332
8 3 0.203514 0.247012 0.714011
9 4 0.228689 0.234854 0.817023
10 1 0.271228 0.235971 0.674871
11 3 0.331732 0.184549 0.665645
12 4 0.296796 0.277517 0.676971
13 1 0.312566 0.161705 0.590528
14 3 0.306903 0.18879 0.517702
15 4 0.279599 0.124522 0.581559
16 1 0.382407 0.207173 0.502083
17 3 0.439041 0.156359 0.481869
18 4 0.41706 0.241766 0.517421
19 1 0.40207 0.122682 0.420064
20 3 0.37608 0.0647609 0.459907
21 5 0.435856 0.0915618 0.403898
22 1 0.444585 0.0372326 0.494751
23 3 0.466115 0.0365109 0.565921
24 4 0.475304 0.00605109 0.472621
25 1 0.479227 0.112108 0.580864
26 3 0.407524 0.125972 0.606923
27 4 0.500241 0.156047 0.572405
28 1 0.420788 0.109612 0.685219
29 3 0.468367 0.143521 0.736288
30 4 0.416214 0.0653766 0.706937
31 1 0.415621 0.202727 0.760911
32 3 0.345984 0.193746 0.792291
33 4 0.424986 0.247146 0.740514
34 1 0.357953 0.221321 0.866611
35 3 0.370075 0.296158 0.860407
36 4 0.374682 0.202698 0.90996
37 1 0.311175 0.3249 0.90676
38 3 0.359048 0.377697 0.931334
39 4 0.270044 0.328879 0.931299
40 1 0.405617 0.333044 0.978831
41 3 0.469457 0.368968 0.954727
42 4 0.422405 0.303646 1.01301
43 1 0.483429 0.326585 0.887334
44 3 0.500628 0.38915 0.845982
45 4 0.48264 0.291362 0.853706
46 1 0.425656 0.415357 0.831553
47 3 0.434516 0.48787 0.845288
48 4 0.380596 0.408672 0.814083
49 1 0.422178 0.48718 0.928177
50 3 0.484231 0.531249 0.94045
51 4 0.399977 0.47421 0.970563
52 1 0.53987 0.47343 0.947874
53 3 0.595868 0.511338 0.906982
54 4 0.560986 0.429008 0.958611
55 1 0.569456 0.497085 0.833598
56 3 0.57447 0.571733 0.810234
57 4 0.558172 0.471778 0.793171
58 1 0.498993 0.595738 0.827666
59 3 0.507541 0.664088 0.862504
60 4 0.448243 0.592599 0.835375
61 1 0.545282 0.640126 0.929157
62 3 0.612529 0.678765 0.93603
63 4 0.541608 0.61956 0.973997
64 1 0.656166 0.636223 0.887327
65 3 0.674969 0.692712 0.83856
66 4 0.674799 0.591474 0.875691
67 1 0.627112 0.682789 0.77782
68 3 0.620228 0.758458 0.778296
69 5 0.577847 0.687776 0.779843
70 1 0.562409 0.767672 0.831813
71 3 0.595892 0.833355 0.856139
72 4 0.524098 0.763127 0.857757
73 1 0.651899 0.801764 0.903364
74 3 0.707096 0.85079 0.875881
75 4 0.671763 0.775565 0.93739
76 1 0.72382 0.813559 0.807987
77 3 0.721545 0.877708 0.761571
78 4 0.734681 0.773856 0.77909
79 1 0.641632 0.881034 0.754426
80 3 0.644824 0.955639 0.770923
81 4 0.597137 0.867505 0.74389
82 1 0.640098 0.955204 0.850795
83 3 0.698261 1.00494 0.857794
84 4 0.618591 0.941616 0.890773
85 1 0.760931 0.956753 0.858424
86 3 0.811639 0.991216 0.815689
87 4 0.788703 0.920462 0.876779
88 1 0.779309 0.982611 0.739721
89 3 0.84798 0.959502 0.70956
90 5 0.790179 0.934179 0.740924
91 1 0.849087 0.883843 0.729604
92 3 0.802204 0.84133 0.690006
93 4 0.863431 0.865966 0.772092
94 1 0.850469 0.793439 0.651479
95 3 0.920099 0.76217 0.661145
96 4 0.850966 0.811208 0.606168
97 1 0.907972 0.687398 0.646558
98 3 0.873195 0.660661 0.584855
99 4 0.902254 0.66028 0.685724
100 1 0.93427 0.61142 0.557339
101 3 0.9741 0.667896 0.520357
102 5 0.887429 0.624397 0.548769
103 1 0.977311 0.634496 0.445912
104 3 0.948032 0.685642 0.402115
105 4 0.996751 0.600576 0.41521
106 1 0.871502 0.663458 0.40376
107 3 0.846297 0.732837 0.42042
108 4 0.837767 0.632609 0.390381
109 1 0.846053 0.735385 0.498475
110 3 0.769707 0.737546 0.495988
111 4 0.853037 0.777417 0.471935
112 1 0.754758 0.698874 0.566541
113 3 0.75006 0.766959 0.598134
114 4 0.758749 0.665745 0.598694
115 1 0.673332 0.776962 0.605425
116 3 0.649245 0.839172 0.573599
117 4 0.696 0.799161 0.642211
118 1 0.649985 0.814888 0.494583
119 3 0.580058 0.790086 0.491411
120 4 0.681939 0.796433 0.462719
121 1 0.545778 0.842006 0.441633
122 3 0.543328 0.790838 0.387322
123 4 0.546907 0.8843 0.415666
124 1 0.466984 0.768563 0.398018
125 3 0.399609 0.801864 0.386833
126 4 0.446392 0.734461 0.428504
127 1 0.398153 0.80462 0.304631
128 3 0.370236 0.736436 0.276969
129 4 0.422068 0.817152 0.26255
130 1 0.292647 0.747182 0.298737
131 3 0.247971 0.773162 0.237714
132 4 0.259583 0.749391 0.332638
133 1 0.287185 0.733236 0.177562
134 3 0.235323 0.689051 0.137166
135 4 0.326718 0.733566 0.149519
136 1 0.236811 0.625144 0.184274
137 3 0.158266 0.619349 0.185381
138 4 0.253814 0.587204 0.211628
139 1 0.144495 0.674651 0.243272
140 3 0.0963185 0.627835 0.279557
141 5 0.169851 0.632664 0.238322
142 1 0.141241 0.600722 0.337608
143 3 0.120867 0.652174 0.390896
144 4 0.179446 0.582634 0.360846
145 1 0.0456845 0.624472 0.406055
146 3 0.0705591 0.601221 0.475556
147 4 0.00148528 0.606248 0.404076
148 1 0.097058 0.670081 0.507107
149 3 0.0634647 0.73892 0.524904
150 4 0.142979 0.687683 0.501135
151 1 0.0233109 0.717808 0.59225
152 3 0.0348625 0.779019 0.637393
153 4 0.00044019 0.691684 0.624294
154 1 0.114415 0.785045 0.634054
155 3 0.12704 0.814241 0.563459
156 4 0.147208 0.768304 0.662869
157 1 0.153522 0.885912 0.582344
158 3 0.225587 0.86282 0.567105
159 4 0.142975 0.93041 0.598122
160 1 0.242208 0.90727 0.503406
161 3 0.283306 0.951603 0.553272
162 4 0.229766 0.932172 0.461027
163 1 0.354808 0.932011 0.524801
164 3 0.383203 0.885997 0.577704
165 4 0.352966 0.96934 0.554728
166 1 0.386484 0.818731 0.53045
167 3 0.459486 0.81684 0.50208
168 4 0.359056 0.786235 0.513548
169 1 0.49315 0.770869 0.556965
170 3 0.470713 0.697601 0.567812
171 4 0.511624 0.785102 0.599276
172 1 0.529635 0.657554 0.536785
173 3 0.596349 0.661063 0.567745
174 4 0.53651 0.641567 0.48981
175 1 0.602976 0.593413 0.608796
176 3 0.575408 0.523929 0.597347
177 4 0.592502 0.608812 0.653979
178 1 0.641523 0.480961 0.599185
179 3 0.629971 0.460939 0.670699
180 4 0.687226 0.470332 0.590187
181 1 0.595581 0.392091 0.664142
182 3 0.61893 0.333287 0.620116
183 4 0.545179 0.386937 0.665033
184 1 0.667942 0.294876 0.669256
185 3 0.615956 0.250756 0.709265
186 4 0.712564 0.291921 0.69197
187 1 0.625676 0.182317 0.673942
188 3 0.630469 0.134681 0.735091
189 4 0.632357 0.155035 0.630317
190 1 0.705842 0.155918 0.754513
191 3 0.684607 0.154906 0.828547
192 4 0.75453 0.165799 0.755975
193 1 0.649272 0.22512 0.834463
194 3 0.673494 0.280617 0.882457
195 5 0.664526 0.189159 0.799452
196 1 0.746435 0.295858 0.85058
197 3 0.717277 0.344967 0.797022
198 4 0.79161 0.28295 0.828327
199 1 0.737089 0.413173 0.83101
200 3 0.80851 0.415211 0.800271
201 4 0.739205 0.442373 0.867913
202 1 0.793719 0.455369 0.732701
203 3 0.825745 0.517934 0.766377
204 4 0.770383 0.472475 0.693055
205 1 0.901897 0.501409 0.750286
206 3 0.958635 0.53567 0.71175
207 4 0.924918 0.475794 0.785799
208 1 0.955745 0.49774 0.641587
209 3 0.934302 0.426803 0.623243
210 5 0.912703 0.485075 0.62479
211 1 0.98229 0.411145 0.560366
212 3 0.93748 0.430381 0.503613
213 5 1.0132 0.373312 0.548561
214 1 0.897829 0.363813 0.489544
215 3 0.841359 0.353754 0.539609
216 4 0.906166 0.317126 0.477996
217 1 0.789485 0.405815 0.511344
218 3 0.726605 0.363767 0.522519
219 4 0.775601 0.446889 0.490563
220 1 0.729442 0.312844 0.462298
221 3 0.700012 0.35952 0.409541
222 5 0.751183 0.285559 0.429723
223 1 0.625642 0.332177 0.402267
224 3 0.567959 0.380128 0.415562
225 4 0.607091 0.291705 0.381589
226 1 0.544138 0.356285 0.488877
227 3 0.577715 0.414012 0.525123
228 4 0.533655 0.322058 0.523563
229 1 0.51563 0.4634 0.535387
230 3 0.443954 0.455944 0.56174
231 4 0.512447 0.501387 0.50102
232 1 0.444118 0.513596 0.618525
233 3 0.467966 0.583335 0.602994
234 4 0.455652 0.512877 0.666073
235 1 0.401877 0.624285 0.589018
236 3 0.344965 0.636331 0.638526
237 4 0.37727 0.627071 0.546416
238 1 0.371822 0.701784 0.676617
239 3 0.387244 0.760767 0.630137
240 4 0.399439 0.696316 0.717952
241 1 0.34744 0.816818 0.673667
242 3 0.386342 0.833495 0.737519
243 4 0.299328 0.827912 0.665499
244 1 0.385183 0.914466 0.729803
245 3 0.386901 0.916219 0.807647
246 4 0.377745 0.960596 0.711946
247 1 0.311066 0.89445 0.825394
248 3 0.309555 0.836213 0.877042
249 4 0.263721 0.905264 0.825554
250 1 0.358582 0.784678 0.841635
251 3 0.316041 0.724258 0.85627
252 4 0.378853 0.784698 0.885734
253 1 0.25804 0.727598 0.802352
254 3 0.29428 0.701144 0.739835
255 4 0.219992 0.753427 0.785482
256 1 0.263026 0.628755 0.735921
257 3 0.200375 0.632405 0.693655
258 4 0.260267 0.584237 0.75768
259 1 0.233329 0.636011 0.620874
260 3 0.199043 0.582518 0.579157
261 4 0.252493 0.669439 0.593585
262 1 0.254012 0.528173 0.579501
263 3 0.329619 0.514728 0.585031
264 5 0.270012 0.498478 0.538196
265 1 0.334432 0.443403 0.556331
266 3 0.320913 0.407705 0.49052
267 4 0.330078 0.402299 0.587078
268 1 0.375124 0.436351 0.441178
269 3 0.447443 0.413169 0.450502
270 4 0.37495 0.480721 0.420313
271 1 0.456034 0.374445 0.380085
272 3 0.449435 0.387397 0.304906
273 4 0.450744 0.326812 0.387083
274 1 0.525949 0.373884 0.279945
275 3 0.525533 0.323798 0.219347
276 4 0.573019 0.384218 0.279263
277 1 0.501981 0.259579 0.262635
278 3 0.429016 0.269323 0.24006
279 4 0.492625 0.227537 0.300551
280 1 0.433085 0.242893 0.1642
281 3 0.407637 0.290116 0.108359
282 5 0.385451 0.239334 0.149759
283 1 0.458288 0.351653 0.125957
284 3 0.535599 0.353375 0.112382
285 4 0.447095 0.38986 0.15517
286 1 0.533139 0.387129 0.0398249
287 3 0.54155 0.460555 0.0557897
288 4 0.52047 0.39179 -0.00772483
289 1 0.620875 0.464799 0.0668533
290 3 0.613771 0.460992 0.142546
291 5 0.581139 0.436068 0.0578455
292 1 0.60827 0.535513 0.166312
293 3 0.54563 0.554603 0.205226
294 4 0.631249 0.577048 0.162868
295 1 0.487852 0.524623 0.157939
296 3 0.483067 0.464865 0.203146
297 4 0.467547 0.512595 0.115849
298 1 0.425042 0.486529 0.254331
299 3 0.351611 0.488562 0.23249
300 4 0.43358 0.512944 0.294279
301 1 0.324426 0.420566 0.265304
302 3 0.331345 0.406045 0.340543
303 4 0.322366 0.379303 0.239506
304 1 0.252655 0.405536 0.360218
305 3 0.251681 0.329299 0.360861
306 4 0.2059 0.421486 0.364191
307 1 0.265473 0.315088 0.43844
308 3 0.195225 0.324592 0.468794
309 4 0.295136 0.318391 0.478982
310 1 0.164036 0.253029 0.45562
311 3 0.106092 0.221139 0.49517
312 4 0.147805 0.229453 0.416472
ITEM: TIMESTEP
2000
ITEM: NUMBER OF ATOMS
312
ITEM: BOX BOUNDS ss ss ss
-0.698 30.512
-4.837 26.742
-9.483 21.654
ITEM: ATOMS id type xs ys zs
1 1 0.209307 0.029988 0.851581
2 3 0.241804 0.0981049 0.861604
3 4 0.163 0.043739 0.866817
4 1 0.258135 0.116088 0.784441
5 3 0.197007 0.1537 0.760421
6 4 0.277902 0.102183 0.739752
7 1 0.214614 0.225828 0.790534
8 3 0.202451 0.264484 0.724061
9 4 0.221679 0.261127 0.823785
10 1 0.269178 0.243842 0.684558
11 3 0.325846 0.191288 0.681321
12 4 0.295385 0.285518 0.683085
13 1 0.316395 0.167813 0.605268
14 3 0.318639 0.198866 0.534428
15 4 0.285129 0.131009 0.594957
16 1 0.39808 0.202416 0.52124
17 3 0.449495 0.146087 0.511272
18 4 0.435008 0.233814 0.536388
19 1 0.420982 0.108039 0.446594
20 3 0.383185 0.0587775 0.496412
21 5 0.401681 0.154231 0.455258
22 1 0.447315 0.0268557 0.529531
23 3 0.468494 0.0268816 0.603335
24 4 0.473634 -0.013052 0.515319
25 1 0.482175 0.105975 0.613825
26 3 0.409352 0.120795 0.634628
27 4 0.500582 0.147003 0.602331
28 1 0.415876 0.109149 0.71575
29 3 0.463257 0.154321 0.755838
30 4 0.415751 0.0663054 0.739407
31 1 0.408217 0.208489 0.781821
32 3 0.336088 0.214583 0.807477
33 4 0.420775 0.248161 0.757637
34 1 0.347624 0.238141 0.883252
35 3 0.365003 0.311057 0.875152
36 4 0.363554 0.222936 0.924847
37 1 0.301712 0.345709 0.911645
38 3 0.346573 0.399723 0.943257
39 4 0.259497 0.351699 0.936276
40 1 0.394769 0.355674 0.989298
41 3 0.465998 0.377533 0.968617
42 4 0.405582 0.329075 1.02946
43 1 0.472984 0.343244 0.896814
44 3 0.491929 0.404711 0.860496
45 4 0.473257 0.303631 0.872403
46 1 0.419388 0.430764 0.836337
47 3 0.420844 0.502775 0.852022
48 4 0.373416 0.423345 0.816022
49 1 0.413248 0.50427 0.932589
50 3 0.475489 0.54633 0.95235
51 4 0.394181 0.492976 0.97655
52 1 0.532523 0.492256 0.954805
53 3 0.585722 0.532428 0.913787
54 4 0.551544 0.447598 0.966758
55 1 0.564809 0.509036 0.839257
56 3 0.570087 0.579262 0.809902
57 4 0.55232 0.480422 0.800706
58 1 0.494289 0.605862 0.822304
59 3 0.513192 0.673364 0.847218
60 4 0.445091 0.604023 0.82713
61 1 0.537209 0.655629 0.921809
62 3 0.602971 0.698233 0.925351
63 4 0.532081 0.637602 0.968187
64 1 0.650048 0.644824 0.883717
65 3 0.675078 0.694725 0.83408
66 4 0.67004 0.600084 0.87279
67 1 0.623857 0.692051 0.775636
68 3 0.621214 0.768356 0.778593
69 5 0.625254 0.711905 0.822922
70 1 0.558975 0.782696 0.825447
71 3 0.589517 0.845455 0.85898
72 4 0.518453 0.778894 0.84832
73 1 0.652185 0.813763 0.895561
74 3 0.707915 0.859812 0.869643
75 4 0.672084 0.786863 0.931015
76 1 0.725817 0.818769 0.802203
77 3 0.723999 0.885377 0.761627
78 4 0.73389 0.782706 0.770292
79 1 0.647356 0.89079 0.747321
80 3 0.639012 0.964705 0.761115
81 4 0.60264 0.875905 0.737329
82 1 0.642984 0.963974 0.84291
83 3 0.696222 1.01418 0.857026
84 4 0.623164 0.948975 0.885828
85 1 0.760797 0.971344 0.852461
86 3 0.804468 1.00953 0.803832
87 4 0.786234 0.932733 0.869953
88 1 0.778266 0.98898 0.734083
89 3 0.843102 0.96101 0.694854
90 5 0.78066 1.01039 0.690561
91 1 0.849146 0.890299 0.725743
92 3 0.801492 0.84382 0.687462
93 4 0.863293 0.869996 0.768886
94 1 0.851103 0.798277 0.647351
95 3 0.922632 0.770119 0.648587
96 4 0.849663 0.816526 0.60171
97 1 0.907339 0.691309 0.640859
98 3 0.867979 0.653666 0.584866
99 4 0.900806 0.663141 0.681496
100 1 0.932328 0.612318 0.558345
101 3 0.95303 0.667755 0.509086
102 5 0.885956 0.604239 0.543646
103 1 0.975882 0.624331 0.446244
104 3 0.950744 0.675125 0.398799
105 4 0.986406 0.581878 0.424819
106 1 0.872293 0.667852 0.396361
107 3 0.839931 0.73597 0.411928
108 4 0.838206 0.635429 0.382761
109 1 0.84792 0.731706 0.494472
110 3 0.770826 0.710765 0.490035
111 4 0.848644 0.776139 0.47082
112 1 0.75729 0.703658 0.56764
113 3 0.744735 0.771753 0.593415
114 4 0.766639 0.671649 0.604254
115 1 0.664567 0.766703 0.603943
116 3 0.65588 0.833693 0.573594
117 4 0.681294 0.789591 0.645211
118 1 0.647496 0.806022 0.49558
119 3 0.578691 0.782369 0.489418
120 4 0.679858 0.790259 0.460195
121 1 0.544922 0.840346 0.443198
122 3 0.534147 0.790204 0.386136
123 4 0.538528 0.879724 0.41753
124 1 0.463325 0.760649 0.400668
125 3 0.407369 0.80976 0.389286
126 4 0.445612 0.722793 0.426723
127 1 0.395599 0.799779 0.308749
128 3 0.361416 0.741668 0.274775
129 4 0.416752 0.814906 0.268677
130 1 0.286417 0.742241 0.304942
131 3 0.243813 0.763654 0.243766
132 4 0.25022 0.751043 0.333131
133 1 0.277026 0.728748 0.182109
134 3 0.246338 0.673046 0.139977
135 4 0.317643 0.733557 0.152056
136 1 0.239744 0.614311 0.19208
137 3 0.15963 0.601438 0.192978
138 4 0.258492 0.5758 0.215458
139 1 0.140709 0.653313 0.251068
140 3 0.0971784 0.601606 0.286318
141 5 0.11626 0.679109 0.287302
142 1 0.140772 0.585022 0.350078
143 3 0.119598 0.634456 0.402484
144 4 0.180231 0.563181 0.367106
145 1 0.0423232 0.613707 0.413321
146 3 0.0603781 0.585484 0.487198
147 4 0.00189773 0.586188 0.405898
148 1 0.100458 0.648575 0.511269
149 3 0.0587715 0.712043 0.526152
150 4 0.143985 0.668706 0.511465
151 1 0.0321277 0.692376 0.599529
152 3 0.0372067 0.760724 0.637781
153 4 0.00969885 0.664254 0.630973
154 1 0.114634 0.768261 0.639477
155 3 0.133892 0.796229 0.568964
156 4 0.14989 0.752991 0.665823
157 1 0.148783 0.871768 0.588975
158 3 0.221746 0.858039 0.572199
159 4 0.1437 0.91202 0.613646
160 1 0.236934 0.899967 0.509178
161 3 0.278811 0.941568 0.553148
162 4 0.225261 0.920262 0.464631
163 1 0.352515 0.9184 0.532378
164 3 0.391323 0.875855 0.582329
165 4 0.349801 0.9507 0.570805
166 1 0.382824 0.80472 0.547615
167 3 0.454504 0.806575 0.514511
168 4 0.355765 0.772377 0.523401
169 1 0.493893 0.757889 0.561572
170 3 0.473092 0.684251 0.571175
171 4 0.520787 0.773777 0.597224
172 1 0.533319 0.647772 0.534698
173 3 0.604947 0.647882 0.563892
174 4 0.54451 0.631742 0.48833
175 1 0.605284 0.584988 0.609788
176 3 0.578355 0.516849 0.591115
177 4 0.593592 0.590802 0.657485
178 1 0.64533 0.47285 0.594615
179 3 0.628649 0.446235 0.665255
180 4 0.690914 0.462769 0.584839
181 1 0.598291 0.373776 0.648966
182 3 0.618772 0.317255 0.602512
183 4 0.550087 0.366236 0.64635
184 1 0.674253 0.281102 0.647974
185 3 0.630274 0.233756 0.689165
186 4 0.715959 0.280705 0.670513
187 1 0.63735 0.166576 0.642652
188 3 0.642457 0.120377 0.706498
189 4 0.645699 0.141584 0.604303
190 1 0.71436 0.141225 0.73393
191 3 0.69831 0.137243 0.811918
192 4 0.76134 0.147871 0.728212
193 1 0.654795 0.202435 0.81632
194 3 0.685599 0.252886 0.865383
195 5 0.648104 0.218065 0.770378
196 1 0.75453 0.272352 0.833395
197 3 0.725952 0.323442 0.787486
198 4 0.800673 0.261033 0.813558
199 1 0.747247 0.391777 0.824653
200 3 0.812846 0.390429 0.785367
201 4 0.748471 0.423995 0.860186
202 1 0.797481 0.439525 0.725549
203 3 0.831281 0.501883 0.756746
204 4 0.77242 0.461601 0.689508
205 1 0.907135 0.484695 0.749708
206 3 0.975166 0.500451 0.718255
207 4 0.927293 0.468602 0.788812
208 1 0.960505 0.49329 0.63968
209 3 0.987762 0.42007 0.639901
210 5 0.934604 0.510329 0.677068
211 1 0.992338 0.410101 0.561253
212 3 0.958881 0.432029 0.494389
213 5 0.99563 0.363554 0.546156
214 1 0.909599 0.367754 0.483462
215 3 0.846506 0.349848 0.523575
216 4 0.917552 0.321256 0.464383
217 1 0.795865 0.407083 0.50353
218 3 0.731701 0.365327 0.509886
219 4 0.784742 0.450524 0.485088
220 1 0.739929 0.318519 0.448285
221 3 0.706492 0.370622 0.401173
222 5 0.769469 0.347352 0.421138
223 1 0.634579 0.334641 0.392494
224 3 0.570901 0.371599 0.405399
225 4 0.621669 0.2947 0.366192
226 1 0.551142 0.350316 0.481011
227 3 0.584194 0.404073 0.519224
228 4 0.542714 0.316684 0.513238
229 1 0.521268 0.453884 0.531331
230 3 0.447092 0.448517 0.555868
231 4 0.526307 0.492288 0.497819
232 1 0.44956 0.503679 0.615002
233 3 0.467542 0.578937 0.618228
234 4 0.46092 0.496638 0.66033
235 1 0.406197 0.612177 0.583981
236 3 0.353077 0.618078 0.639123
237 4 0.379911 0.613443 0.543045
238 1 0.374638 0.686765 0.674537
239 3 0.385494 0.751054 0.635609
240 4 0.403767 0.685979 0.714129
241 1 0.344617 0.801473 0.683457
242 3 0.374507 0.817016 0.752759
243 4 0.296694 0.81198 0.673071
244 1 0.385015 0.895779 0.743393
245 3 0.383571 0.899447 0.821163
246 4 0.377349 0.942376 0.725148
247 1 0.309382 0.870437 0.833803
248 3 0.306484 0.811422 0.882815
249 4 0.262557 0.880508 0.835515
250 1 0.355391 0.761512 0.844507
251 3 0.304907 0.707647 0.864927
252 4 0.375835 0.761173 0.889466
253 1 0.257978 0.705369 0.801226
254 3 0.294106 0.681741 0.735612
255 4 0.21937 0.731304 0.78945
256 1 0.267103 0.607785 0.731171
257 3 0.20239 0.613193 0.690803
258 4 0.262021 0.561444 0.750542
259 1 0.235274 0.625485 0.618806
260 3 0.202308 0.572298 0.574468
261 4 0.256729 0.657937 0.590381
262 1 0.256918 0.51701 0.574659
263 3 0.324819 0.489653 0.600777
264 5 0.285272 0.499151 0.536019
265 1 0.339968 0.435088 0.546559
266 3 0.319117 0.40283 0.479215
267 4 0.337418 0.391728 0.574342
268 1 0.377288 0.428975 0.431127
269 3 0.453271 0.404456 0.435642
270 4 0.375728 0.474758 0.410139
271 1 0.458223 0.37394 0.362336
272 3 0.446076 0.384564 0.287342
273 4 0.448541 0.324977 0.366886
274 1 0.521236 0.378709 0.26057
275 3 0.529588 0.328816 0.204976
276 4 0.568985 0.39092 0.260472
277 1 0.498989 0.263713 0.240633
278 3 0.428468 0.270764 0.218574
279 4 0.491427 0.230482 0.276848
280 1 0.428953 0.255096 0.140451
281 3 0.390837 0.310548 0.102125
282 5 0.464949 0.285497 0.146533
283 1 0.448254 0.367094 0.106733
284 3 0.522467 0.359775 0.0894569
285 4 0.436314 0.398157 0.141791
286 1 0.526633 0.407168 0.0238736
287 3 0.536438 0.47565 0.0510641
288 4 0.510195 0.417609 -0.0231469