LAMMPS protain data file

         135  atoms
         178  bonds
           0  angles
           0  dihedrals
           0  impropers

           5  atom types
           5  bond types
           0  angle types
           0  dihedral types
           0  improper types

-200.0	200.0	xlo xhi
-200.0	200.0	ylo yhi
-200.0	200.0	zlo zhi

Masses

           1	27.0
           2	14.0
           3	28.0
           4	60.0
           5	60.0

Atoms

           1	1	1	1	0.0	-17.28000069	9.94200039	-4.17000008
           2	1	1	3	0.0	-16.39599991	8.20699978	-2.76399994
           3	1	1	4	0.0	-17.9829998	9.58699989	-5.48199987
           4	1	2	1	0.0	-14.24800014	7.65799999	-4.42700005
           5	1	2	3	0.0	-12.28800011	9.02700043	-4.6500001
           6	1	2	4	0.0	-13.96899986	6.87599993	-5.71199989
           7	1	3	1	0.0	-11.42300034	8.58600044	-2.05500007
           8	1	3	3	0.0	-10.22999954	7.00600004	-3.41400003
           9	1	3	4	0.0	-11.39999962	8.28899956	-0.55500001
          10	1	4	1	0.0	-7.77199984	8.23799992	-3.06599998
          11	1	4	3	0.0	-7.36999989	6.68900013	-1.27600002
          12	1	4	4	0.0	-6.68200016	9.27900028	-2.80500007
          13	1	5	1	0.0	-6.55499983	4.63700008	-2.95000005
          14	1	5	3	0.0	-4.97800016	3.87599993	-1.30799997
          15	1	5	4	0.0	-6.43300009	3.71600008	-4.15600014
          16	1	6	1	0.0	-3.102	5.829	-1.89300001
          17	1	6	3	0.0	-3.8269999	7.75600004	-0.65700001
          18	1	6	4	0.0	-2.10100007	6.46899986	-2.85800004
          19	1	7	1	0.0	-2.71300006	6.90700006	1.73399997
          20	1	7	3	0.0	-0.322	7.06400013	1.59300005
          21	1	7	4	0.0	-3.14100003	5.96199989	2.85899997
          22	1	8	1	0.0	-0.117	9.28199959	3.2750001
          23	1	8	3	0.0	2.08599997	8.33500004	3.4059999
          24	1	8	4	0.0	-0.57800001	10.25199986	4.36499977
          25	1	9	1	0.0	1.41900003	6.51599979	5.38600016
          26	1	9	3	0.0	3.04200006	5.12099981	4.29899979
          27	1	9	4	0.0	0.74900001	5.85200024	6.57999992
          28	1	10	1	0.0	1.20299995	3.94799995	2.58999991
          29	1	10	3	0.0	3.05200005	3.73600006	1.07599998
          30	1	10	4	0.0	-0.079	3.48399997	1.86899996
          31	1	11	1	0.0	2.96000004	6.36899996	0.245
          32	1	11	3	0.0	5.32000017	5.97100019	0.071
          33	1	11	4	0.0	2.50500011	7.79500008	-0.073
          34	1	12	1	0.0	5.87599993	6.87599993	2.62599993
          35	1	12	3	0.0	7.61299992	5.23199987	2.38400006
          36	1	12	4	0.0	5.78100014	7.50600004	4.02199984
          37	1	13	1	0.0	6.02199984	3.13800001	3.2809999
          38	1	13	3	0.0	7.47700024	1.93900001	1.79200006
          39	1	13	4	0.0	4.875	2.30699992	3.86199999
          40	1	14	1	0.0	5.87300014	2.35899997	-0.43700001
          41	1	14	3	0.0	8.04599953	2.18400002	-1.44200003
          42	1	14	4	0.0	4.7329998	2.76099992	-1.375
          43	1	15	1	0.0	8.55500031	4.90299988	-1.31900001
          44	1	15	3	0.0	10.88799953	4.38999987	-1.097
          45	1	15	4	0.0	8.42500019	6.40999985	-1.16100001
          46	1	16	1	0.0	10.65499973	3.45300007	1.49600005
          47	1	16	3	0.0	12.39700031	1.93099999	0.85600001
          48	1	16	4	0.0	10.18700027	3.26099992	2.94099998
          49	1	17	1	0.0	10.65100002	-0.045	0.005
          50	1	17	3	0.0	10.63700008	-1.046	-2.17700005
          51	1	17	4	0.0	9.68299961	-1.12699997	0.486
          52	1	18	1	0.0	10.75199986	1.37399995	-3.53200006
          53	1	18	3	0.0	9.74600029	0.133	-5.32399988
          54	1	18	4	0.0	12.09799957	0.91299999	-4.09800005
          55	1	19	1	0.0	7.34399986	-0.25299999	-4.00099993
          56	1	19	3	0.0	6.4000001	1.91999996	-4.40399981
          57	1	19	4	0.0	6.68900013	-1.08800006	-2.89599991
          58	1	20	1	0.0	4.28999996	0.93800002	-5.92199993
          59	1	20	3	0.0	2.67400002	-0.82999998	-5.76399994
          60	1	20	4	0.0	4.47599983	0.97899997	-7.44000006
          61	1	21	1	0.0	0.685	0.78500003	-4.71099997
          62	1	21	3	0.0	-0.86699998	-0.78799999	-5.65299988
          63	1	21	4	0.0	-0.14300001	1.97899997	-4.26100016
          64	1	22	1	0.0	-0.191	-0.215	-8.27900028
          65	1	22	3	0.0	-0.95599997	-2.46700001	-8.62199974
          66	1	22	4	0.0	0.486	0.32100001	-9.54199982
          67	1	23	1	0.0	1.34000003	-3.625	-7.58199978
          68	1	23	3	0.0	0.366	-5.41900015	-6.31699991
          69	1	23	4	0.0	2.83500004	-3.88400006	-7.46700001
          70	1	24	1	0.0	-0.44600001	-3.78900003	-4.22599983
          71	1	24	3	0.0	-2.41199994	-2.63000011	-4.96999979
          72	1	24	4	0.0	0.041	-3.01399994	-2.98600006
          73	1	25	1	0.0	-4.171	-4.47700024	-3.88400006
          74	1	25	3	0.0	-4.32999992	-4.11000013	-1.51699996
          75	1	25	4	0.0	-4.75500011	-5.88199997	-4.03900003
          76	1	26	1	0.0	-6.30000019	-2.20700002	-1.72300005
          77	1	26	3	0.0	-8.49400043	-3.09599996	-2.05200005
          78	1	26	5	0.0	-5.69000006	-1.00134399	-0.84559633
          79	1	27	1	0.0	-8.83199978	-3.80800009	0.60699999
          80	1	27	3	0.0	-10.18599987	-3.37800002	2.54200006
          81	1	27	4	0.0	-8.44699955	-5.13399982	1.26499999
          82	1	28	1	0.0	-9.94200039	-0.65200001	2.398
          83	1	28	3	0.0	-11.90999985	-0.83499998	1.05400002
          84	1	28	5	0.0	-9.33199978	0.02319889	3.38854709
          85	1	29	1	0.0	-13.21199989	1.27499998	2.28699994
          86	1	29	3	0.0	-13.00599957	2.81699991	0.45899999
          87	1	29	4	0.0	-13.60200024	2.48000002	3.16700006
          88	1	30	1	0.0	-13.80900002	1.00899994	-1.44799995
          89	1	30	3	0.0	-12.68900013	0.454	-3.48699999
          90	1	30	5	0.0	-13.69699955	1.62115408	-2.19683746
          91	1	31	1	0.0	-10.71899986	-1.02600002	-2.26900005
          92	1	31	3	0.0	-8.46000004	-0.55299997	-2.89499998
          93	1	31	5	0.0	-11.80700016	-2.06530565	-2.83959325
          94	1	32	1	0.0	-8.15499973	1.50399995	-1.05799997
          95	1	32	3	0.0	-7.26499987	-0.40400001	0.098
          96	1	32	4	0.0	-8.45699978	2.69899988	-0.153
          97	1	33	1	0.0	-4.63700008	0.48100001	-0.033
          98	1	33	3	0.0	-4.85500002	1.74399996	1.99800003
          99	1	33	4	0.0	-3.36299992	0.98400003	-0.71600002
         100	1	34	1	0.0	-3.91700006	-0.29899999	3.61999989
         101	1	34	3	0.0	-1.89400005	-1.55799997	3.30999994
         102	1	34	4	0.0	-5.01499987	-1.11399996	4.30499983
         103	1	35	1	0.0	-0.81599998	-0.83099997	5.76200008
         104	1	35	3	0.0	0.435	-2.87299991	5.57499981
         105	1	35	4	0.0	-0.64300001	-0.34200001	7.20100021
         106	1	36	1	0.0	-1.79299998	-4.5079999	5.77199984
         107	1	36	3	0.0	-0.70099998	-5.98899984	4.22800016
         108	1	36	4	0.0	-3.16199994	-5.05299997	6.18599987
         109	1	37	1	0.0	-1.67400002	-4.69799995	1.97500002
         110	1	37	3	0.0	0.40700001	-5.16900015	0.87300003
         111	1	37	4	0.0	-2.6099999	-3.94400001	1.028
         112	1	38	1	0.0	1.67900002	-2.91199994	1.85599995
         113	1	38	3	0.0	3.58899999	-4.36399984	1.89900005
         114	1	38	4	0.0	1.96099997	-1.47399998	2.33400011
         115	1	39	1	0.0	3.31999993	-4.98899984	4.58699989
         116	1	39	3	0.0	4.22800016	-7.1500001	4.0619998
         117	1	39	4	0.0	2.93799996	-4.96500015	6.06699991
         118	1	40	1	0.0	1.84500003	-8.14400005	3.05599999
         119	1	40	3	0.0	3.11400008	-9.36299992	1.42299998
         120	1	40	4	0.0	0.34799999	-8.42500019	2.9000001
         121	1	41	1	0.0	3.14199996	-7.28999996	-0.417
         122	1	41	3	0.0	5.29099989	-8.06000042	-1.15999997
         123	1	41	4	0.0	2.83200002	-6.00299978	-1.18299997
         124	1	42	1	0.0	6.6500001	-7.0539999	1.03400004
         125	1	42	3	0.0	8.11100006	-8.91899967	1.41999996
         126	1	42	4	0.0	7.11399984	-5.93300009	1.96599996
         127	1	43	1	0.0	6.29899979	-10.28899956	3.00600004
         128	1	43	3	0.0	7.33300018	-12.3039999	2.21000004
         129	1	43	4	0.0	5.09899998	-10.67500019	3.85700011
         130	1	44	1	0.0	6.1420002	-12.18599987	-0.28799999
         131	1	44	3	0.0	7.94999981	-12.57199955	-1.81900001
         132	1	44	4	0.0	4.83699989	-12.35999966	-1.07000005
         133	1	45	1	0.0	8.45300007	-9.88000011	-2.23900008
         134	1	45	3	0.0	10.81299973	-9.53800011	-2.1789999
         135	1	45	4	0.0	8.24300003	-8.38500023	-2.42400002

Bond Coeffs

           1	200.0	3.77
           2	200.0	2.41
           3	200.0	2.50
           4	200.0	1.54
           5	200.0	1.54
Bonds

           1	2	1	2
           2	4	1	3
           3	1	1	4
           4	3	2	4
           5	2	4	5
           6	4	4	6
           7	1	4	7
           8	3	5	7
           9	2	7	8
          10	4	7	9
          11	1	7	10
          12	3	8	10
          13	2	10	11
          14	4	10	12
          15	1	10	13
          16	3	11	13
          17	2	13	14
          18	4	13	15
          19	1	13	16
          20	3	14	16
          21	2	16	17
          22	4	16	18
          23	1	16	19
          24	3	17	19
          25	2	19	20
          26	4	19	21
          27	1	19	22
          28	3	20	22
          29	2	22	23
          30	4	22	24
          31	1	22	25
          32	3	23	25
          33	2	25	26
          34	4	25	27
          35	1	25	28
          36	3	26	28
          37	2	28	29
          38	4	28	30
          39	1	28	31
          40	3	29	31
          41	2	31	32
          42	4	31	33
          43	1	31	34
          44	3	32	34
          45	2	34	35
          46	4	34	36
          47	1	34	37
          48	3	35	37
          49	2	37	38
          50	4	37	39
          51	1	37	40
          52	3	38	40
          53	2	40	41
          54	4	40	42
          55	1	40	43
          56	3	41	43
          57	2	43	44
          58	4	43	45
          59	1	43	46
          60	3	44	46
          61	2	46	47
          62	4	46	48
          63	1	46	49
          64	3	47	49
          65	2	49	50
          66	4	49	51
          67	1	49	52
          68	3	50	52
          69	2	52	53
          70	4	52	54
          71	1	52	55
          72	3	53	55
          73	2	55	56
          74	4	55	57
          75	1	55	58
          76	3	56	58
          77	2	58	59
          78	4	58	60
          79	1	58	61
          80	3	59	61
          81	2	61	62
          82	4	61	63
          83	1	61	64
          84	3	62	64
          85	2	64	65
          86	4	64	66
          87	1	64	67
          88	3	65	67
          89	2	67	68
          90	4	67	69
          91	1	67	70
          92	3	68	70
          93	2	70	71
          94	4	70	72
          95	1	70	73
          96	3	71	73
          97	2	73	74
          98	4	73	75
          99	1	73	76
         100	3	74	76
         101	2	76	77
         102	5	76	78
         103	1	76	79
         104	3	77	79
         105	2	79	80
         106	4	79	81
         107	1	79	82
         108	3	80	82
         109	2	82	83
         110	5	82	84
         111	1	82	85
         112	3	83	85
         113	2	85	86
         114	4	85	87
         115	1	85	88
         116	3	86	88
         117	2	88	89
         118	5	88	90
         119	1	88	91
         120	3	89	91
         121	2	91	92
         122	5	91	93
         123	1	91	94
         124	3	92	94
         125	2	94	95
         126	4	94	96
         127	1	94	97
         128	3	95	97
         129	2	97	98
         130	4	97	99
         131	1	97	100
         132	3	98	100
         133	2	100	101
         134	4	100	102
         135	1	100	103
         136	3	101	103
         137	2	103	104
         138	4	103	105
         139	1	103	106
         140	3	104	106
         141	2	106	107
         142	4	106	108
         143	1	106	109
         144	3	107	109
         145	2	109	110
         146	4	109	111
         147	1	109	112
         148	3	110	112
         149	2	112	113
         150	4	112	114
         151	1	112	115
         152	3	113	115
         153	2	115	116
         154	4	115	117
         155	1	115	118
         156	3	116	118
         157	2	118	119
         158	4	118	120
         159	1	118	121
         160	3	119	121
         161	2	121	122
         162	4	121	123
         163	1	121	124
         164	3	122	124
         165	2	124	125
         166	4	124	126
         167	1	124	127
         168	3	125	127
         169	2	127	128
         170	4	127	129
         171	1	127	130
         172	3	128	130
         173	2	130	131
         174	4	130	132
         175	1	130	133
         176	3	131	133
         177	2	133	134
         178	4	133	135

