ITEM: TIMESTEP
0
ITEM: NUMBER OF ATOMS
135
ITEM: BOX BOUNDS ss ss ss
-18.023 12.437
-12.612 10.292
-9.582 7.241
ITEM: ATOMS id type xs ys zs
1 1 0.0243926 0.984719 0.321702
2 3 0.0534143 0.908968 0.405278
3 4 0.0013132 0.969219 0.243714
4 1 0.123933 0.884998 0.306426
5 3 0.18828 0.944769 0.29317
6 4 0.133093 0.850856 0.230042
7 1 0.216678 0.925515 0.447423
8 3 0.255844 0.856532 0.366641
9 4 0.217433 0.912548 0.536587
10 1 0.33654 0.910321 0.387327
11 3 0.349737 0.842691 0.493729
12 4 0.372324 0.955772 0.402841
13 1 0.376494 0.7531 0.394222
14 3 0.428267 0.719874 0.491827
15 4 0.380499 0.712889 0.322535
16 1 0.489856 0.805143 0.457053
17 3 0.466054 0.889277 0.530524
18 4 0.522718 0.833086 0.399691
19 1 0.502626 0.852209 0.672651
20 3 0.581123 0.859064 0.664269
21 4 0.488575 0.81095 0.739523
22 1 0.587853 0.955903 0.764251
23 3 0.660177 0.914556 0.772038
24 4 0.572718 0.998254 0.829044
25 1 0.63828 0.835138 0.889734
26 3 0.691563 0.774232 0.82512
27 4 0.616284 0.806147 0.960709
28 1 0.631188 0.723018 0.723533
29 3 0.691891 0.713762 0.633537
30 4 0.5891 0.702759 0.680675
31 1 0.688871 0.82872 0.584141
32 3 0.766349 0.811343 0.573798
33 4 0.673933 0.89098 0.565238
34 1 0.784603 0.850856 0.725673
35 3 0.841628 0.779078 0.711288
36 4 0.781484 0.878362 0.808655
37 1 0.789396 0.687653 0.764608
38 3 0.837163 0.635304 0.676098
39 4 0.75174 0.651371 0.799144
40 1 0.784504 0.653641 0.543601
41 3 0.855844 0.646001 0.483861
42 4 0.747078 0.671193 0.487844
43 1 0.872554 0.764714 0.491173
44 3 0.949146 0.742316 0.504369
45 4 0.868286 0.83051 0.500565
46 1 0.941497 0.701406 0.658503
47 3 0.998687 0.634955 0.62046
48 4 0.926133 0.693023 0.744398
49 1 0.941366 0.548681 0.569875
50 3 0.940906 0.504977 0.440171
51 4 0.909586 0.501441 0.598466
52 1 0.944682 0.610636 0.359627
53 3 0.911655 0.556453 0.253106
54 4 0.988871 0.590508 0.325982
55 1 0.832797 0.5396 0.331748
56 3 0.801806 0.634474 0.307793
57 4 0.811293 0.503144 0.397432
58 1 0.732534 0.5916 0.217559
59 3 0.679481 0.514408 0.226951
60 4 0.738641 0.59339 0.127326
61 1 0.614183 0.58492 0.289544
62 3 0.56323 0.516242 0.233549
63 4 0.586999 0.63705 0.316293
64 1 0.585423 0.541259 0.0774535
65 3 0.560309 0.442936 0.0570647
66 4 0.607649 0.564661 0.0023777
67 1 0.635686 0.392377 0.118885
68 3 0.60371 0.31405 0.19408
69 4 0.684767 0.381069 0.125721
70 1 0.577052 0.385217 0.318374
71 3 0.512508 0.435819 0.274148
72 4 0.59304 0.419053 0.392082
73 1 0.45476 0.355178 0.338703
74 3 0.44954 0.371202 0.479403
75 4 0.435588 0.293835 0.329489
76 1 0.384865 0.454287 0.467158
77 3 0.312836 0.415473 0.447601
78 5 0.404892 0.506927 0.519313
79 1 0.30174 0.384387 0.605659
80 3 0.257288 0.403161 0.72068
81 4 0.31438 0.326493 0.644772
82 1 0.265299 0.52218 0.71212
83 3 0.200689 0.51419 0.63223
84 5 0.285325 0.551659 0.771001
85 1 0.157945 0.606313 0.705522
86 3 0.164708 0.673638 0.596861
87 4 0.145141 0.658924 0.757832
88 1 0.138345 0.5947 0.483505
89 3 0.175115 0.570468 0.362302
90 5 0.142022 0.621427 0.438992
91 1 0.23979 0.50585 0.434702
92 3 0.313953 0.526502 0.397492
93 5 0.204071 0.460474 0.400785
94 1 0.323966 0.616312 0.506687
95 3 0.353185 0.533007 0.575403
96 4 0.314051 0.668486 0.560483
97 1 0.439462 0.571647 0.567616
98 3 0.432305 0.62679 0.688343
99 4 0.481287 0.593608 0.527017
100 1 0.463099 0.537592 0.784759
101 3 0.529514 0.482623 0.766332
102 4 0.427052 0.502008 0.825477
103 1 0.564905 0.514364 0.912085
104 3 0.605975 0.42521 0.900969
105 4 0.570584 0.535714 0.997622
106 1 0.53283 0.353825 0.912679
107 3 0.56868 0.289163 0.8209
108 4 0.487886 0.33003 0.937288
109 1 0.536737 0.345529 0.686976
110 3 0.605056 0.324965 0.621471
111 4 0.506008 0.378449 0.630684
112 1 0.646815 0.423507 0.679902
113 3 0.709521 0.360112 0.682459
114 4 0.656074 0.486291 0.708316
115 1 0.700689 0.332824 0.84224
116 3 0.730499 0.238474 0.811032
117 4 0.688148 0.333872 0.930215
118 1 0.652265 0.195075 0.751233
119 3 0.693926 0.141853 0.654164
120 4 0.603119 0.182806 0.74196
121 1 0.694846 0.232361 0.54479
122 3 0.765397 0.198743 0.500624
123 4 0.684668 0.288552 0.499257
124 1 0.810013 0.242665 0.631041
125 3 0.857978 0.161238 0.653986
126 4 0.825246 0.291608 0.686441
127 1 0.79849 0.101423 0.748261
128 3 0.832436 0.0134474 0.700945
129 4 0.759094 0.0845704 0.798847
130 1 0.793336 0.0185994 0.552458
131 3 0.852692 0.00174642 0.461452
132 4 0.750492 0.0110024 0.505974
133 1 0.869206 0.11928 0.436486
134 3 0.946684 0.134212 0.440052
135 4 0.862311 0.184553 0.425489
ITEM: TIMESTEP
1000
ITEM: NUMBER OF ATOMS
135
ITEM: BOX BOUNDS ss ss ss
-18.023 12.437
-12.612 10.292
-9.582 7.241
ITEM: ATOMS id type xs ys zs
1 1 0.048343 1.02446 0.274339
2 3 0.0854326 0.9542 0.354874
3 4 0.0231378 1.00861 0.199525
4 1 0.146905 0.926539 0.258154
5 3 0.205212 0.997625 0.283281
6 4 0.158731 0.902551 0.17798
7 1 0.232326 0.949908 0.413257
8 3 0.276899 0.883421 0.337731
9 4 0.229324 0.932387 0.497869
10 1 0.353185 0.931227 0.368234
11 3 0.369586 0.856417 0.463367
12 4 0.387839 0.976475 0.393616
13 1 0.385459 0.77071 0.374663
14 3 0.438953 0.733621 0.466912
15 4 0.391003 0.730522 0.302936
16 1 0.498189 0.810252 0.454368
17 3 0.483911 0.894962 0.530755
18 4 0.533127 0.831642 0.395891
19 1 0.509781 0.864142 0.66708
20 3 0.588523 0.875186 0.663953
21 4 0.494896 0.820361 0.73189
22 1 0.592981 0.955574 0.762914
23 3 0.665617 0.919623 0.814885
24 4 0.580851 1.00559 0.817371
25 1 0.6383 0.830884 0.892423
26 3 0.682671 0.752111 0.836532
27 4 0.611903 0.808534 0.960491
28 1 0.635794 0.723458 0.724155
29 3 0.690761 0.723763 0.619578
30 4 0.592416 0.709547 0.681687
31 1 0.696003 0.829991 0.593179
32 3 0.776212 0.820996 0.590356
33 4 0.685981 0.891493 0.570051
34 1 0.790255 0.836231 0.737569
35 3 0.840995 0.754153 0.75383
36 4 0.785558 0.867253 0.817191
37 1 0.785188 0.676649 0.77886
38 3 0.819345 0.609204 0.686532
39 4 0.744729 0.643245 0.814927
40 1 0.785076 0.643713 0.555001
41 3 0.856773 0.643864 0.489189
42 4 0.750651 0.666635 0.495319
43 1 0.879211 0.748574 0.509305
44 3 0.951501 0.743825 0.558632
45 4 0.876047 0.815204 0.511137
46 1 0.94006 0.680927 0.681062
47 3 0.988496 0.598214 0.6628
48 4 0.921974 0.676981 0.765767
49 1 0.937756 0.530335 0.590459
50 3 0.957968 0.498151 0.456186
51 4 0.902801 0.485868 0.619425
52 1 0.945723 0.584168 0.375165
53 3 0.907288 0.529332 0.278106
54 4 0.989551 0.563022 0.347184
55 1 0.832404 0.528738 0.344159
56 3 0.795198 0.617393 0.326017
57 4 0.811997 0.487628 0.411559
58 1 0.733781 0.584107 0.229341
59 3 0.677075 0.517294 0.261502
60 4 0.740181 0.578577 0.137995
61 1 0.615055 0.582118 0.290753
62 3 0.557391 0.536869 0.212367
63 4 0.588142 0.631036 0.327432
64 1 0.588964 0.535727 0.080036
65 3 0.572326 0.43989 0.0520893
66 4 0.609773 0.56367 0.00767235
67 1 0.631548 0.385908 0.12749
68 3 0.596687 0.317871 0.213361
69 4 0.681265 0.373885 0.137076
70 1 0.57901 0.377299 0.330518
71 3 0.513723 0.400756 0.250427
72 4 0.589238 0.42261 0.389127
73 1 0.455242 0.349274 0.332855
74 3 0.441398 0.374022 0.467338
75 4 0.441782 0.282374 0.328385
76 1 0.380175 0.445194 0.459363
77 3 0.316238 0.386777 0.452222
78 5 0.371564 0.375841 0.448644
79 1 0.296764 0.385354 0.597772
80 3 0.278319 0.41332 0.735019
81 4 0.304983 0.327023 0.636786
82 1 0.261711 0.518202 0.706743
83 3 0.191802 0.520544 0.631402
84 5 0.235325 0.561126 0.761002
85 1 0.154148 0.605999 0.699708
86 3 0.168555 0.669678 0.583815
87 4 0.139596 0.651656 0.753235
88 1 0.141093 0.607682 0.477448
89 3 0.164984 0.535605 0.379811
90 5 0.0950036 0.596329 0.442764
91 1 0.242134 0.520163 0.428956
92 3 0.310453 0.567272 0.400114
93 5 0.228161 0.459692 0.434238
94 1 0.327912 0.625375 0.51497
95 3 0.36459 0.544004 0.56966
96 4 0.312942 0.67665 0.567854
97 1 0.440573 0.58071 0.581344
98 3 0.429873 0.618722 0.712218
99 4 0.478531 0.600792 0.535555
100 1 0.457478 0.535699 0.793904
101 3 0.525247 0.480331 0.784542
102 4 0.419308 0.497058 0.822174
103 1 0.55686 0.509 0.916723
104 3 0.589184 0.414285 0.938096
105 4 0.560542 0.531744 1.00317
106 1 0.526328 0.351781 0.910117
107 3 0.556911 0.288224 0.804484
108 4 0.480643 0.325011 0.93077
109 1 0.535418 0.347371 0.685303
110 3 0.599491 0.355258 0.600535
111 4 0.499876 0.37498 0.635375
112 1 0.641553 0.425496 0.687023
113 3 0.710439 0.366799 0.709165
114 4 0.649878 0.48922 0.715453
115 1 0.690972 0.33011 0.84875
116 3 0.714011 0.2305 0.811945
117 4 0.678526 0.328652 0.935144
118 1 0.647379 0.197589 0.742765
119 3 0.686962 0.154337 0.637319
120 4 0.599314 0.183655 0.735195
121 1 0.693838 0.237818 0.546347
122 3 0.768664 0.211263 0.51836
123 4 0.687977 0.29563 0.499029
124 1 0.807958 0.249743 0.638837
125 3 0.853446 0.174292 0.695663
126 4 0.820453 0.298406 0.686248
127 1 0.798489 0.1034 0.740366
128 3 0.830439 0.0170458 0.680303
129 4 0.758017 0.0906342 0.788773
130 1 0.794211 0.0224228 0.544992
131 3 0.855819 0.0240914 0.451489
132 4 0.752484 0.0171895 0.499763
133 1 0.871138 0.129871 0.44078
134 3 0.923311 0.191254 0.386214
135 4 0.864081 0.196037 0.432674
ITEM: TIMESTEP
2000
ITEM: NUMBER OF ATOMS
135
ITEM: BOX BOUNDS ss ss ss
-18.023 12.437
-12.612 10.292
-9.582 7.241
ITEM: ATOMS id type xs ys zs
1 1 0.0544902 1.03473 0.249551
2 3 0.0853178 0.961434 0.333229
3 4 0.026472 1.01642 0.176682
4 1 0.148678 0.930328 0.243811
5 3 0.205098 1.00074 0.272745
6 4 0.16364 0.904485 0.163276
7 1 0.236172 0.950638 0.395631
8 3 0.281507 0.88564 0.319644
9 4 0.232538 0.938945 0.481392
10 1 0.356701 0.932229 0.353164
11 3 0.364107 0.858115 0.449324
12 4 0.391451 0.97608 0.374407
13 1 0.389967 0.775974 0.366681
14 3 0.451406 0.734375 0.443643
15 4 0.397822 0.740013 0.285953
16 1 0.496818 0.820781 0.453875
17 3 0.479539 0.9045 0.530963
18 4 0.536328 0.841782 0.399697
19 1 0.508648 0.867184 0.664564
20 3 0.587416 0.880273 0.657908
21 4 0.492022 0.83123 0.732487
22 1 0.59452 0.961959 0.75567
23 3 0.662686 0.924226 0.805127
24 4 0.580498 1.01412 0.806213
25 1 0.635156 0.842915 0.886395
26 3 0.67854 0.761757 0.834484
27 4 0.609226 0.823307 0.957225
28 1 0.628794 0.731006 0.725412
29 3 0.682974 0.72055 0.622548
30 4 0.587089 0.715849 0.679676
31 1 0.697245 0.82646 0.597987
32 3 0.775182 0.824988 0.600565
33 4 0.681632 0.885628 0.566473
34 1 0.788476 0.848095 0.742342
35 3 0.838169 0.773309 0.78833
36 4 0.785529 0.87853 0.819831
37 1 0.786497 0.687755 0.786735
38 3 0.818976 0.613379 0.700075
39 4 0.745585 0.660797 0.819695
40 1 0.785762 0.646871 0.568837
41 3 0.85576 0.651609 0.497267
42 4 0.749192 0.658031 0.511691
43 1 0.880797 0.752944 0.527917
44 3 0.957723 0.73091 0.560959
45 4 0.881104 0.817651 0.529345
46 1 0.940118 0.686208 0.697753
47 3 0.988284 0.602388 0.689793
48 4 0.920129 0.684476 0.78206
49 1 0.940303 0.533831 0.611142
50 3 0.964313 0.497695 0.484505
51 4 0.902213 0.491017 0.636207
52 1 0.946765 0.585503 0.399751
53 3 0.903172 0.538599 0.29323
54 4 0.992105 0.564894 0.367443
55 1 0.832313 0.524894 0.368449
56 3 0.793235 0.615545 0.343475
57 4 0.810694 0.489371 0.429326
58 1 0.740987 0.583728 0.240993
59 3 0.677976 0.518941 0.255371
60 4 0.748438 0.580469 0.150641
61 1 0.619543 0.585664 0.29936
62 3 0.563792 0.532465 0.228412
63 4 0.59259 0.635496 0.331905
64 1 0.596643 0.536045 0.0888179
65 3 0.580277 0.434922 0.0584465
66 4 0.617983 0.561121 0.0161084
67 1 0.640045 0.384206 0.136341
68 3 0.599939 0.314791 0.215822
69 4 0.688629 0.378255 0.138119
70 1 0.579938 0.381082 0.327974
71 3 0.515586 0.411721 0.263344
72 4 0.590706 0.417169 0.39601
73 1 0.460151 0.34966 0.338973
74 3 0.44959 0.398095 0.459182
75 4 0.443034 0.287375 0.329502
76 1 0.372891 0.439024 0.439671
77 3 0.315561 0.372184 0.462075
78 5 0.388163 0.504043 0.437377
79 1 0.293471 0.384644 0.600426
80 3 0.282914 0.423585 0.736414
81 4 0.305533 0.328174 0.631358
82 1 0.259543 0.526298 0.69969
83 3 0.197829 0.531168 0.614681
84 5 0.297854 0.487543 0.675974
85 1 0.154462 0.607414 0.686269
86 3 0.156931 0.676422 0.579126
87 4 0.141058 0.65548 0.744342
88 1 0.140992 0.6065 0.466745
89 3 0.165923 0.538243 0.365562
90 5 0.0928377 0.598841 0.465234
91 1 0.246969 0.539124 0.405174
92 3 0.321565 0.568437 0.383479
93 5 0.217585 0.592475 0.387755
94 1 0.329434 0.628532 0.515191
95 3 0.359132 0.549771 0.592187
96 4 0.320559 0.678356 0.563508
97 1 0.440786 0.576333 0.579073
98 3 0.448094 0.621292 0.710376
99 4 0.483267 0.588745 0.535106
100 1 0.454717 0.530861 0.793494
101 3 0.520728 0.472969 0.791866
102 4 0.416644 0.491638 0.823877
103 1 0.554076 0.498709 0.92284
104 3 0.588823 0.405271 0.925576
105 4 0.556656 0.518485 1.00815
106 1 0.523655 0.338517 0.914867
107 3 0.552603 0.277206 0.810241
108 4 0.476572 0.318486 0.940291
109 1 0.532128 0.337134 0.690375
110 3 0.60165 0.326014 0.631001
111 4 0.501922 0.378992 0.640423
112 1 0.641998 0.411438 0.691125
113 3 0.706769 0.352443 0.716377
114 4 0.647656 0.469759 0.731361
115 1 0.686671 0.307971 0.845054
116 3 0.706344 0.204258 0.824581
117 4 0.675259 0.319116 0.929283
118 1 0.637742 0.176452 0.744087
119 3 0.667606 0.131916 0.628258
120 4 0.591044 0.168171 0.739365
121 1 0.688454 0.222854 0.549165
122 3 0.760785 0.19528 0.513266
123 4 0.678503 0.28081 0.509158
124 1 0.80006 0.228597 0.636485
125 3 0.842995 0.147713 0.687113
126 4 0.813068 0.277865 0.693037
127 1 0.784106 0.0815807 0.738168
128 3 0.806812 -0.00781695 0.677585
129 4 0.743829 0.0661676 0.785158
130 1 0.773056 0.00515307 0.542517
131 3 0.835609 -0.00535642 0.458276
132 4 0.73321 -0.00134236 0.491763
133 1 0.855581 0.103423 0.433805
134 3 0.929956 0.0813605 0.399403
135 4 0.856608 0.169088 0.438008
ITEM: TIMESTEP
3000
ITEM: NUMBER OF ATOMS
135
ITEM: BOX BOUNDS ss ss ss
-18.023 12.437
-12.612 10.292
-9.582 7.241
ITEM: ATOMS id type xs ys zs
1 1 0.0558308 1.04036 0.245274
2 3 0.0975098 0.979817 0.336827
3 4 0.0444665 1.03379 0.155549
4 1 0.152192 0.939818 0.243626
5 3 0.205117 1.01404 0.291524
6 4 0.167291 0.918196 0.1656
7 1 0.24295 0.958505 0.395943
8 3 0.290488 0.905247 0.313893
9 4 0.237234 0.941576 0.481112
10 1 0.363433 0.938397 0.354591
11 3 0.367576 0.859311 0.446886
12 4 0.395465 0.981306 0.388075
13 1 0.396388 0.781151 0.359559
14 3 0.44194 0.744576 0.461196
15 4 0.405427 0.744406 0.284831
16 1 0.505839 0.815375 0.45303
17 3 0.475017 0.88939 0.541312
18 4 0.541078 0.844557 0.409537
19 1 0.511548 0.863536 0.668415
20 3 0.589653 0.87498 0.672633
21 4 0.494235 0.824525 0.732766
22 1 0.596189 0.955465 0.768668
23 3 0.667053 0.916547 0.807987
24 4 0.583407 1.01286 0.813519
25 1 0.639646 0.840452 0.898691
26 3 0.683326 0.767203 0.840596
27 4 0.609951 0.814061 0.965869
28 1 0.631717 0.732466 0.733081
29 3 0.691236 0.72427 0.640312
30 4 0.591528 0.713341 0.689122
31 1 0.701134 0.826433 0.59772
32 3 0.78087 0.828386 0.607728
33 4 0.687729 0.889153 0.570037
34 1 0.790298 0.834558 0.757107
35 3 0.835413 0.749646 0.764635
36 4 0.785238 0.86731 0.832549
37 1 0.782583 0.672387 0.800725
38 3 0.817918 0.605164 0.708941
39 4 0.738953 0.64262 0.834219
40 1 0.786997 0.643903 0.57899
41 3 0.855892 0.640702 0.513245
42 4 0.750218 0.655605 0.523515
43 1 0.88555 0.743135 0.537083
44 3 0.956266 0.711422 0.574428
45 4 0.881966 0.808322 0.544951
46 1 0.939337 0.672264 0.710546
47 3 0.989651 0.594078 0.685113
48 4 0.920578 0.667644 0.79457
49 1 0.93733 0.522086 0.620484
50 3 0.956784 0.489151 0.487567
51 4 0.899173 0.482559 0.647466
52 1 0.951991 0.582032 0.411312
53 3 0.913071 0.533821 0.310441
54 4 0.996712 0.551514 0.392361
55 1 0.837416 0.52542 0.368687
56 3 0.798874 0.615456 0.353784
57 4 0.813775 0.488171 0.433755
58 1 0.743808 0.58281 0.248612
59 3 0.686467 0.517896 0.277736
60 4 0.753066 0.577564 0.159752
61 1 0.62477 0.584954 0.298549
62 3 0.567331 0.536225 0.220271
63 4 0.59793 0.638822 0.321697
64 1 0.600918 0.546762 0.0851817
65 3 0.586518 0.446793 0.0423678
66 4 0.625001 0.563906 0.0108287
67 1 0.641354 0.394689 0.134075
68 3 0.612336 0.321154 0.228593
69 4 0.691263 0.379553 0.144775
70 1 0.578698 0.386988 0.32638
71 3 0.51315 0.421647 0.275242
72 4 0.59168 0.426715 0.395366
73 1 0.459086 0.349273 0.328463
74 3 0.44354 0.384387 0.459332
75 4 0.44425 0.288857 0.31417
76 1 0.377118 0.445412 0.435363
77 3 0.327503 0.364863 0.461469
78 5 0.362673 0.39283 0.391786
79 1 0.291819 0.402598 0.583995
80 3 0.256844 0.428994 0.702059
81 4 0.305611 0.346997 0.627234
82 1 0.257651 0.541121 0.693965
83 3 0.190206 0.540958 0.613513
84 5 0.245463 0.577324 0.624374
85 1 0.154985 0.628399 0.668463
86 3 0.187427 0.684292 0.556995
87 4 0.14109 0.676493 0.724672
88 1 0.146997 0.631296 0.445287
89 3 0.199695 0.609211 0.343655
90 5 0.101103 0.639017 0.415856
91 1 0.241628 0.52857 0.417483
92 3 0.313009 0.569779 0.371417
93 5 0.250474 0.466301 0.448328
94 1 0.328788 0.630072 0.496241
95 3 0.357536 0.550116 0.568933
96 4 0.314736 0.683049 0.551504
97 1 0.439686 0.581203 0.57245
98 3 0.435276 0.619146 0.699411
99 4 0.481486 0.604319 0.528948
100 1 0.45419 0.5341 0.784307
101 3 0.523948 0.479617 0.772446
102 4 0.416412 0.495489 0.81372
103 1 0.554641 0.501929 0.909766
104 3 0.580431 0.402896 0.923737
105 4 0.560006 0.523633 0.994757
106 1 0.514796 0.34518 0.904983
107 3 0.546357 0.286278 0.802849
108 4 0.469139 0.330759 0.927719
109 1 0.525201 0.344119 0.67866
110 3 0.59275 0.344626 0.603363
111 4 0.495442 0.375454 0.622577
112 1 0.637995 0.408629 0.689937
113 3 0.70242 0.350948 0.720907
114 4 0.644765 0.474602 0.707221
115 1 0.679766 0.307577 0.849726
116 3 0.70049 0.208164 0.812957
117 4 0.670521 0.308937 0.931621
118 1 0.632225 0.178572 0.741572
119 3 0.6653 0.136265 0.629447
120 4 0.580383 0.176257 0.730061
121 1 0.683762 0.224567 0.549639
122 3 0.757429 0.190107 0.528517
123 4 0.677919 0.284228 0.508702
124 1 0.796296 0.22236 0.64499
125 3 0.840678 0.143013 0.693899
126 4 0.809105 0.274085 0.693252
127 1 0.779427 0.0804977 0.749554
128 3 0.794131 -0.0139758 0.69406
129 4 0.737598 0.0685119 0.799894
130 1 0.768782 -0.00378286 0.553697
131 3 0.822508 -0.00744016 0.450846
132 4 0.724831 -0.00842147 0.504677
133 1 0.85018 0.0958691 0.442914
134 3 0.928135 0.103462 0.471148
135 4 0.853855 0.163483 0.46583
ITEM: TIMESTEP
4000
ITEM: NUMBER OF ATOMS
135
ITEM: BOX BOUNDS ss ss ss
-18.023 12.437
-12.612 10.292
-9.582 7.241
ITEM: ATOMS id type xs ys zs
1 1 0.064538 1.02842 0.239188
2 3 0.109068 0.965714 0.323959
3 4 0.0356352 1.00923 0.176761
4 1 0.161977 0.930742 0.21816
5 3 0.216512 0.996401 0.2583
6 4 0.179209 0.901914 0.144312
7 1 0.245203 0.947266 0.384725
8 3 0.295603 0.883402 0.312097
9 4 0.23997 0.935727 0.468051
10 1 0.368411 0.926204 0.350972
11 3 0.384385 0.851857 0.443542
12 4 0.397781 0.970724 0.390949
13 1 0.406656 0.772669 0.347984
14 3 0.458984 0.738118 0.440622
15 4 0.416382 0.743971 0.263802
16 1 0.510802 0.821326 0.453353
17 3 0.499609 0.901538 0.536696
18 4 0.545252 0.856294 0.402332
19 1 0.511138 0.858808 0.6683
20 3 0.590886 0.868952 0.674109
21 4 0.494045 0.819559 0.733655
22 1 0.598066 0.944305 0.78203
23 3 0.661929 0.898181 0.826092
24 4 0.582774 0.992765 0.840614
25 1 0.631763 0.816511 0.907814
26 3 0.680146 0.745007 0.849073
27 4 0.607715 0.785759 0.975681
28 1 0.62985 0.71447 0.735491
29 3 0.686831 0.70914 0.632183
30 4 0.588417 0.698229 0.69185
31 1 0.702654 0.816462 0.615613
32 3 0.780144 0.826912 0.624482
33 4 0.683947 0.874275 0.589099
34 1 0.79119 0.823244 0.771496
35 3 0.840457 0.740525 0.785078
36 4 0.788504 0.85121 0.851511
37 1 0.785128 0.659983 0.802938
38 3 0.814967 0.591813 0.711894
39 4 0.744806 0.631146 0.835189
40 1 0.787211 0.62847 0.580542
41 3 0.855721 0.626598 0.514323
42 4 0.75235 0.642947 0.520185
43 1 0.884358 0.726534 0.552671
44 3 0.958835 0.700922 0.596251
45 4 0.88465 0.79079 0.562517
46 1 0.940376 0.658209 0.731899
47 3 0.988832 0.575252 0.708075
48 4 0.918636 0.648559 0.811709
49 1 0.940246 0.508755 0.633188
50 3 0.962986 0.477581 0.508214
51 4 0.901878 0.465516 0.657082
52 1 0.953938 0.568376 0.42641
53 3 0.914571 0.517342 0.320475
54 4 0.995525 0.543578 0.390208
55 1 0.840183 0.510683 0.377337
56 3 0.806092 0.603254 0.34653
57 4 0.816282 0.474946 0.439884
58 1 0.748731 0.575127 0.249743
59 3 0.690961 0.508135 0.272013
60 4 0.760572 0.571017 0.158541
61 1 0.627418 0.580498 0.294498
62 3 0.571552 0.541526 0.20925
63 4 0.599882 0.630156 0.326207
64 1 0.612925 0.531571 0.0825517
65 3 0.599157 0.433138 0.0352382
66 4 0.633862 0.565534 0.010691
67 1 0.642988 0.378656 0.134388
68 3 0.599061 0.308744 0.21745
69 4 0.69199 0.362918 0.151658
70 1 0.578559 0.383264 0.320105
71 3 0.512357 0.427149 0.272507
72 4 0.594977 0.417758 0.393605
73 1 0.455447 0.361166 0.322336
74 3 0.451794 0.402877 0.444946
75 4 0.431184 0.303073 0.308889
76 1 0.379109 0.458788 0.429723
77 3 0.303733 0.426885 0.424956
78 5 0.417613 0.498801 0.455312
79 1 0.288854 0.404453 0.567898
80 3 0.281478 0.44599 0.698839
81 4 0.296627 0.345554 0.60824
82 1 0.256843 0.54684 0.669334
83 3 0.185401 0.54193 0.597171
84 5 0.227778 0.591303 0.620825
85 1 0.153062 0.635212 0.640587
86 3 0.173905 0.693492 0.528135
87 4 0.14198 0.683163 0.693273
88 1 0.143313 0.633002 0.421234
89 3 0.189395 0.599103 0.317239
90 5 0.115655 0.686036 0.432032
91 1 0.244599 0.540222 0.393429
92 3 0.312476 0.584521 0.355022
93 5 0.218373 0.583722 0.341294
94 1 0.332411 0.639559 0.480653
95 3 0.360239 0.556428 0.550946
96 4 0.323447 0.691104 0.530461
97 1 0.440237 0.584926 0.566981
98 3 0.445678 0.628508 0.693022
99 4 0.48368 0.5999 0.529595
100 1 0.450172 0.542416 0.781807
101 3 0.515987 0.485559 0.774572
102 4 0.41196 0.502526 0.811693
103 1 0.544997 0.506875 0.915915
104 3 0.572904 0.413154 0.925975
105 4 0.545949 0.532367 0.99718
106 1 0.507002 0.350404 0.902259
107 3 0.523018 0.276484 0.797382
108 4 0.460591 0.328497 0.930518
109 1 0.52223 0.343028 0.678931
110 3 0.598668 0.322971 0.634689
111 4 0.497294 0.389391 0.622944
112 1 0.635159 0.410209 0.694769
113 3 0.699857 0.362531 0.73899
114 4 0.644329 0.470853 0.727325
115 1 0.672805 0.31041 0.858841
116 3 0.691765 0.208172 0.841417
117 4 0.657526 0.318069 0.943468
118 1 0.626199 0.18132 0.752387
119 3 0.658449 0.133339 0.639816
120 4 0.574467 0.180398 0.737202
121 1 0.683757 0.225589 0.56341
122 3 0.758634 0.192172 0.540148
123 4 0.672016 0.276905 0.509488
124 1 0.791909 0.225785 0.668006
125 3 0.833017 0.13938 0.695248
126 4 0.803979 0.275495 0.730351
127 1 0.772559 0.0782917 0.757125
128 3 0.795511 -0.0144875 0.69755
129 4 0.729601 0.0693762 0.79884
130 1 0.777103 0.00558534 0.557343
131 3 0.845527 0.00459685 0.475281
132 4 0.738344 0.0161152 0.504382
133 1 0.859811 0.11139 0.478032
134 3 0.842858 0.191129 0.389817
135 4 0.842439 0.168101 0.445551
ITEM: TIMESTEP
5000
ITEM: NUMBER OF ATOMS
135
ITEM: BOX BOUNDS ss ss ss
-18.023 12.437
-12.612 10.292
-9.582 7.241
ITEM: ATOMS id type xs ys zs
1 1 0.0850729 1.08011 0.198794
2 3 0.108244 0.99789 0.280319
3 4 0.0780018 1.07944 0.107079
4 1 0.172311 0.965235 0.196823
5 3 0.219413 1.03561 0.247157
6 4 0.190225 0.933228 0.126404
7 1 0.262493 0.983378 0.35033
8 3 0.312199 0.9323 0.267103
9 4 0.252913 0.962543 0.435459
10 1 0.382372 0.953294 0.335203
11 3 0.372779 0.868557 0.415594
12 4 0.41495 0.990851 0.379433
13 1 0.410248 0.792634 0.338882
14 3 0.460892 0.7485 0.433566
15 4 0.412529 0.759285 0.259309
16 1 0.517659 0.826425 0.444662
17 3 0.501475 0.912885 0.523442
18 4 0.556211 0.838094 0.394252
19 1 0.515805 0.867073 0.660608
20 3 0.594706 0.876435 0.67315
21 4 0.494257 0.821594 0.716183
22 1 0.599858 0.952046 0.782437
23 3 0.663753 0.901812 0.829022
24 4 0.582661 1.00288 0.833402
25 1 0.631463 0.825739 0.91166
26 3 0.675658 0.746995 0.854585
27 4 0.598765 0.799038 0.973875
28 1 0.628078 0.721206 0.739041
29 3 0.694111 0.709858 0.657445
30 4 0.587145 0.70576 0.69446
31 1 0.703243 0.816754 0.620231
32 3 0.779788 0.797733 0.629905
33 4 0.695888 0.882857 0.603418
34 1 0.792119 0.824658 0.781358
35 3 0.837708 0.740931 0.800686
36 4 0.780779 0.855073 0.857306
37 1 0.77961 0.665187 0.81351
38 3 0.813129 0.590265 0.728071
39 4 0.738197 0.631156 0.846353
40 1 0.786349 0.630467 0.59715
41 3 0.860336 0.623849 0.549227
42 4 0.751781 0.649722 0.536235
43 1 0.886937 0.725293 0.578297
44 3 0.958192 0.710718 0.631999
45 4 0.885459 0.790953 0.577695
46 1 0.938214 0.646337 0.74961
47 3 0.98488 0.568361 0.718372
48 4 0.914405 0.647073 0.830583
49 1 0.929636 0.497402 0.661909
50 3 0.955699 0.461834 0.536557
51 4 0.89251 0.458307 0.675026
52 1 0.952823 0.555251 0.455804
53 3 0.917672 0.51517 0.342769
54 4 0.997611 0.534291 0.438841
55 1 0.839501 0.512509 0.396345
56 3 0.796935 0.600674 0.384739
57 4 0.812109 0.474959 0.460162
58 1 0.753835 0.577889 0.264435
59 3 0.690539 0.512397 0.25596
60 4 0.762864 0.577963 0.173006
61 1 0.631441 0.576797 0.311682
62 3 0.572501 0.549997 0.224344
63 4 0.609312 0.634024 0.337011
64 1 0.613109 0.534368 0.0943214
65 3 0.592457 0.437471 0.0629373
66 4 0.641796 0.560031 0.027839
67 1 0.652214 0.381805 0.139479
68 3 0.610823 0.31581 0.216902
69 4 0.701583 0.367832 0.152059
70 1 0.579213 0.382608 0.321628
71 3 0.516792 0.425004 0.265218
72 4 0.590159 0.433694 0.385371
73 1 0.456643 0.358012 0.316819
74 3 0.450679 0.402777 0.445016
75 4 0.434933 0.302823 0.303741
76 1 0.379535 0.459664 0.421962
77 3 0.309983 0.40422 0.419472
78 5 0.338776 0.424608 0.41164
79 1 0.288989 0.408072 0.55961
80 3 0.281177 0.44877 0.693637
81 4 0.294505 0.348179 0.587607
82 1 0.254067 0.547417 0.660656
83 3 0.179979 0.534401 0.622884
84 5 0.25949 0.546693 0.753494
85 1 0.153481 0.640044 0.6291
86 3 0.148281 0.710452 0.521404
87 4 0.1402 0.68497 0.693691
88 1 0.148299 0.642185 0.409665
89 3 0.193405 0.608553 0.29953
90 5 0.150242 0.573717 0.437198
91 1 0.2459 0.541571 0.374325
92 3 0.315735 0.581803 0.340235
93 5 0.279643 0.529193 0.443667
94 1 0.329881 0.642489 0.466873
95 3 0.35975 0.566171 0.545291
96 4 0.317979 0.693481 0.522328
97 1 0.44108 0.593021 0.554323
98 3 0.42191 0.631075 0.683795
99 4 0.485117 0.613795 0.523206
100 1 0.451531 0.546891 0.768462
101 3 0.517197 0.48637 0.769832
102 4 0.411391 0.513127 0.799872
103 1 0.54205 0.502281 0.909709
104 3 0.57224 0.407542 0.907206
105 4 0.541939 0.522205 1.00007
106 1 0.499931 0.351018 0.896497
107 3 0.526114 0.288283 0.792472
108 4 0.452524 0.329702 0.915717
109 1 0.516887 0.350905 0.676317
110 3 0.586155 0.340178 0.602639
111 4 0.484611 0.376358 0.620334
112 1 0.628356 0.418125 0.684393
113 3 0.693987 0.364102 0.708352
114 4 0.641249 0.480713 0.709761
115 1 0.671349 0.319646 0.838685
116 3 0.690381 0.216575 0.817621
117 4 0.658547 0.322464 0.924399
118 1 0.620873 0.187741 0.746661
119 3 0.659243 0.139263 0.641612
120 4 0.571637 0.181344 0.742911
121 1 0.672911 0.223094 0.549994
122 3 0.743851 0.179403 0.526565
123 4 0.665396 0.278263 0.502375
124 1 0.78445 0.220126 0.642806
125 3 0.820391 0.131221 0.684142
126 4 0.798739 0.266356 0.704147
127 1 0.757081 0.0735781 0.740175
128 3 0.772913 -0.0227685 0.682725
129 4 0.716738 0.0666256 0.79248
130 1 0.748868 -0.00018967 0.539252
131 3 0.808627 -0.0129055 0.447751
132 4 0.706876 -0.00239081 0.483916
133 1 0.841434 0.0886899 0.455496
134 3 0.90732 0.0611868 0.524357
135 4 0.842032 0.154658 0.45026
ITEM: TIMESTEP
6000
ITEM: NUMBER OF ATOMS
135
ITEM: BOX BOUNDS ss ss ss
-18.023 12.437
-12.612 10.292
-9.582 7.241
ITEM: ATOMS id type xs ys zs
1 1 0.0929328 1.07829 0.1918
2 3 0.117859 0.997571 0.271468
3 4 0.0702496 1.0579 0.114961
4 1 0.181631 0.961066 0.19675
5 3 0.23534 1.03271 0.243557
6 4 0.196171 0.928632 0.122448
7 1 0.263102 0.971711 0.361792
8 3 0.313837 0.920692 0.272171
9 4 0.256616 0.950352 0.446298
10 1 0.385968 0.945559 0.339998
11 3 0.378533 0.864354 0.427884
12 4 0.422086 0.988219 0.363162
13 1 0.41018 0.784026 0.345632
14 3 0.455376 0.742389 0.449567
15 4 0.417774 0.748482 0.267546
16 1 0.517049 0.816787 0.450227
17 3 0.490074 0.89588 0.538888
18 4 0.559409 0.838451 0.404671
19 1 0.518384 0.857227 0.6663
20 3 0.592347 0.855183 0.705514
21 4 0.496854 0.816264 0.723264
22 1 0.599516 0.94019 0.790936
23 3 0.664374 0.894898 0.848072
24 4 0.580825 0.986192 0.845759
25 1 0.627688 0.811316 0.916819
26 3 0.674869 0.733395 0.86241
27 4 0.59806 0.780306 0.979066
28 1 0.627714 0.70743 0.745891
29 3 0.6896 0.698291 0.648522
30 4 0.587853 0.69724 0.696796
31 1 0.706801 0.806049 0.629182
32 3 0.784365 0.795009 0.649848
33 4 0.697974 0.869533 0.616353
34 1 0.790259 0.806563 0.801198
35 3 0.831839 0.72169 0.832854
36 4 0.779624 0.835592 0.881105
37 1 0.775974 0.64086 0.829422
38 3 0.815105 0.578354 0.737931
39 4 0.731484 0.619757 0.849967
40 1 0.787801 0.619106 0.611253
41 3 0.86122 0.610964 0.555922
42 4 0.755484 0.638295 0.543728
43 1 0.887214 0.713424 0.584542
44 3 0.956421 0.679655 0.632906
45 4 0.886546 0.77803 0.600825
46 1 0.937077 0.638647 0.764635
47 3 0.985184 0.55786 0.738149
48 4 0.909706 0.62974 0.840721
49 1 0.933714 0.492743 0.663192
50 3 0.955169 0.457566 0.530089
51 4 0.896389 0.452866 0.67097
52 1 0.95555 0.555773 0.462064
53 3 0.918157 0.523312 0.343738
54 4 1.00094 0.53741 0.429416
55 1 0.843026 0.50354 0.3954
56 3 0.806659 0.597432 0.385178
57 4 0.815527 0.463272 0.448911
58 1 0.758979 0.579188 0.264294
59 3 0.7008 0.510802 0.287013
60 4 0.771413 0.574322 0.175635
61 1 0.636947 0.578768 0.30099
62 3 0.580639 0.547763 0.210815
63 4 0.610457 0.631102 0.33751
64 1 0.618568 0.552425 0.0802385
65 3 0.609075 0.454214 0.0258039
66 4 0.651523 0.577849 0.0201845
67 1 0.650304 0.396554 0.126737
68 3 0.597399 0.330302 0.187962
69 4 0.697786 0.384545 0.138697
70 1 0.578596 0.388873 0.309546
71 3 0.515723 0.43438 0.253833
72 4 0.591491 0.42598 0.379361
73 1 0.455989 0.368726 0.300594
74 3 0.441298 0.401442 0.439563
75 4 0.433266 0.311337 0.299478
76 1 0.376959 0.46309 0.409809
77 3 0.310946 0.401592 0.402763
78 5 0.345709 0.5139 0.414926
79 1 0.291046 0.417566 0.549321
80 3 0.287343 0.45855 0.677885
81 4 0.295986 0.357687 0.582489
82 1 0.2554 0.559129 0.648124
83 3 0.190504 0.562818 0.564818
84 5 0.256285 0.543907 0.559313
85 1 0.156964 0.658657 0.620859
86 3 0.184704 0.71587 0.511309
87 4 0.146907 0.708857 0.675272
88 1 0.15378 0.663905 0.399481
89 3 0.191801 0.613446 0.302693
90 5 0.153321 0.724236 0.357414
91 1 0.248444 0.551603 0.373922
92 3 0.319283 0.591971 0.34065
93 5 0.202876 0.576968 0.378951
94 1 0.335934 0.643932 0.471656
95 3 0.363982 0.566487 0.556228
96 4 0.324678 0.699262 0.518481
97 1 0.443635 0.591528 0.548005
98 3 0.443668 0.639258 0.678338