LAMMPS protain data file

         288  atoms
         382  bonds
           0  angles
           0  dihedrals
           0  impropers

           5  atom types
           5  bond types
           0  angle types
           0  dihedral types
           0  improper types

-200.0	200.0	xlo xhi
-200.0	200.0	ylo yhi
-200.0	200.0	zlo zhi

Masses

           1	27.0
           2	14.0
           3	28.0
           4	60.0
           5	60.0

Atoms

           1	1	1	1	0.0	44.45199966	12.95199966	7.12400007
           2	1	1	3	0.0	46.7859993	13.40200043	7.27299976
           3	1	1	4	0.0	43.90499878	14.16899967	6.32499981
           4	1	2	1	0.0	47.37599945	11.71100044	5.13999987
           5	1	2	3	0.0	46.73300171	12.89099979	3.12199998
           6	1	2	4	0.0	47.49300003	10.22299957	4.69099998
           7	1	3	1	0.0	49.16699982	14.25599957	2.94000006
           8	1	3	3	0.0	51.02000046	13.74199963	1.39900005
           9	1	3	4	0.0	50.1609993	15.30200005	3.52900004
          10	1	4	1	0.0	49.47999954	12.22399998	-0.17399999
          11	1	4	3	0.0	50.75	10.56599998	1.03699994
          12	1	4	5	0.0	49.03900146	11.60560426	-1.43955536
          13	1	5	1	0.0	52.17100143	9.79300022	-1.24000001
          14	1	5	3	0.0	53.49599838	11.74100018	-2.0480001
          15	1	5	4	0.0	51.81999969	8.88500023	-2.40499997
          16	1	6	1	0.0	55.86299896	10.39900017	-1.67200005
          17	1	6	3	0.0	56.81100082	8.22500038	-1.352
          18	1	6	4	0.0	56.46099854	11.24800014	-0.51899999
          19	1	7	1	0.0	58.55799866	8.39299965	-3.41400003
          20	1	7	3	0.0	60.15499878	9.3760004	-1.89100003
          21	1	7	4	0.0	59.1969986	8.72500038	-4.76800013
          22	1	8	1	0.0	61.26100159	6.9829998	-1.17200005
          23	1	8	3	0.0	63.13000107	8.43099976	-0.79799998
          24	1	8	4	0.0	61.63399887	5.50099993	-1.07000005
          25	1	9	1	0.0	63.87099838	8.56900024	-3.44899988
          26	1	9	3	0.0	64.76999664	10.77200031	-3.35700011
          27	1	9	4	0.0	64.06199646	8.28600025	-4.92600012
          28	1	10	1	0.0	62.33599854	12.02900028	-2.73300004
          29	1	10	3	0.0	62.41999817	13.56900024	-0.91399997
          30	1	10	4	0.0	60.96300125	12.42399979	-3.25699997
          31	1	11	1	0.0	62.86999893	11.62899971	1.04499996
          32	1	11	3	0.0	65.20600128	11.25300026	0.56099999
          33	1	11	4	0.0	62.24399948	10.49600029	1.83700001
          34	1	12	1	0.0	66.16300201	12.16300011	2.90400004
          35	1	12	3	0.0	65.96700287	9.77099991	3.08800006
          36	1	12	4	0.0	66.15200043	12.67500019	4.33799982
          37	1	13	1	0.0	68.56500244	9.2329998	2.48099995
          38	1	13	3	0.0	68.34700012	7.20100021	3.75099993
          39	1	13	4	0.0	69.9940033	9.50500011	2.04900002
          40	1	14	1	0.0	68.17199707	8.43900013	6.19799995
          41	1	14	3	0.0	66.75499725	6.70300007	6.9920001
          42	1	14	4	0.0	68.3010025	9.41100025	7.34700012
          43	1	15	1	0.0	64.59300232	7.33300018	5.42399979
          44	1	15	3	0.0	64.19799805	4.96400023	5.26200008
          45	1	15	4	0.0	63.52500153	8.09700012	4.70300007
          46	1	16	1	0.0	65.98699951	4.59200001	3.18400002
          47	1	16	3	0.0	66.43399811	2.53699994	4.33500004
          48	1	16	4	0.0	66.84300232	4.83199978	1.94200003
          49	1	17	1	0.0	68.3219986	3.602	6.04099989
          50	1	17	3	0.0	67.43900299	1.87600005	7.45100021
          51	1	17	4	0.0	69.31099701	4.53100014	6.73699999
          52	1	18	1	0.0	65.41600037	3.39100003	8.49600029
          53	1	18	3	0.0	64.40899658	1.22300005	8.62800026
          54	1	18	4	0.0	64.48500061	4.53299999	8.92199993
          55	1	19	1	0.0	63.41799927	1.204	6.10099983
          56	1	19	3	0.0	63.75799942	-1.14900005	6.1960001
          57	1	19	4	0.0	62.81700134	1.56700003	4.74800014
          58	1	20	1	0.0	66.40599823	-1.09599996	5.65700006
          59	1	20	3	0.0	66.52600098	-2.977	7.12799978
          60	1	20	4	0.0	67.77899933	-0.73299998	5.05100012
          61	1	21	1	0.0	66.6760025	-1.52600002	9.44099998
          62	1	21	3	0.0	65.32700348	-3.23099995	10.4090004
          63	1	21	4	0.0	67.0019989	-0.44600001	10.46899986
          64	1	22	1	0.0	62.91999817	-2.22399998	9.64700031
          65	1	22	3	0.0	62.41799927	-4.56899977	9.5170002
          66	1	22	4	0.0	61.75899887	-1.28799999	9.25599957
          67	1	23	1	0.0	63.40599823	-4.89099979	6.97700024
          68	1	23	3	0.0	63.87799835	-7.15299988	7.54799986
          69	1	23	4	0.0	63.88700104	-4.68300009	5.54300022
          70	1	24	1	0.0	66.02899933	-6.66800022	9.16100025
          71	1	24	3	0.0	66.27100372	-7.47300005	11.3579998
          72	1	24	4	0.0	67.47799683	-6.18200016	9.17700005
          73	1	25	1	0.0	64.10700226	-6.13600016	12.37899971
          74	1	25	3	0.0	65.62799835	-6.27799988	14.28999996
          75	1	25	4	0.0	63.60900116	-7.46000004	13.03199959
          76	1	26	1	0.0	67.00099945	-4.15999985	13.5
          77	1	26	3	0.0	68.33100128	-5.83799982	12.75699997
          78	1	26	5	0.0	66.01200104	-2.80217097	13.298551
          79	1	27	1	0.0	68.71700287	-3.12299991	15.68799973
          80	1	27	3	0.0	69.42900085	-2.22199988	14.20100021
          81	1	27	4	0.0	69.95500183	-4.23400021	16.76099968
          82	1	28	1	0.0	68.1740036	-0.177	15.66499996
          83	1	28	3	0.0	69.73200226	0.27000001	17.44199944
          84	1	28	4	0.0	66.72200012	0.21699999	15.98099995
          85	1	29	1	0.0	70.22499847	2.79500008	16.84799957
          86	1	29	3	0.0	70.43099976	3.55800009	19.05599976
          87	1	29	4	0.0	70.44400024	4.00299978	15.96700001
          88	1	30	1	0.0	67.69100189	3.43799996	19.68099976
          89	1	30	3	0.0	66.14299774	1.63999999	19.31999969
          90	1	30	4	0.0	66.74099731	4.62200022	19.52199936
          91	1	31	1	0.0	66.17199707	0.71899998	21.90699959
          92	1	31	3	0.0	63.97399902	-0.126	21.73999977
          93	1	31	4	0.0	66.62200165	0.235	23.31800079
          94	1	32	1	0.0	62.74300003	2.41100001	21.71999931
          95	1	32	3	0.0	61.13299942	2.55800009	19.95499992
          96	1	32	4	0.0	62.31000137	3.69099998	22.375
          97	1	33	1	0.0	62.79600143	2.08800006	17.85700035
          98	1	33	3	0.0	62.44100189	-0.29699999	18.21100044
          99	1	33	4	0.0	63.99100113	2.01300001	16.92200089
         100	1	34	1	0.0	60.00999832	-0.40900001	17.23999977
         101	1	34	3	0.0	58.06900024	-1.25300002	18.26199913
         102	1	34	5	0.0	60.80599976	-1.58365985	15.47231366
         103	1	35	1	0.0	57.56000137	0.68400002	20.04400063
         104	1	35	3	0.0	56.31100082	1.49399996	18.13100052
         105	1	35	4	0.0	57.72999954	1.76300001	21.11899948
         106	1	36	1	0.0	53.91400146	0.87400001	19.25900078
         107	1	36	3	0.0	54.06900024	3.18099999	20.04999924
         108	1	36	4	0.0	52.76699829	0.34	20.14999962
         109	1	37	1	0.0	52.72600174	4.15999985	17.80200005
         110	1	37	3	0.0	50.49100113	3.45099998	17.39900017
         111	1	37	4	0.0	53.09700012	4.60900021	16.39699936
         112	1	38	1	0.0	49.3030014	4.93100023	19.28300095
         113	1	38	3	0.0	47.20199966	5.41599989	18.34000015
         114	1	38	4	0.0	48.99200058	5.704	20.57500076
         115	1	39	1	0.0	48.08800125	7.3130002	16.54000092
         116	1	39	3	0.0	45.89300156	8.15799999	17.03300095
         117	1	39	4	0.0	47.46500015	6.42600012	15.48499966
         118	1	40	1	0.0	46.63000107	9.2130003	19.47999954
         119	1	40	3	0.0	44.65100098	10.51200008	19.41900063
         120	1	40	4	0.0	47.51499939	9.5010004	20.8010006
         121	1	41	1	0.0	45.51499939	12.26399994	17.45100021
         122	1	41	3	0.0	44.02799988	12.67700005	15.60599995
         123	1	41	4	0.0	46.49700165	13.43700027	17.08699989
         124	1	42	1	0.0	43.95500183	10.04599953	14.70899963
         125	1	42	3	0.0	43.52700043	10.81000042	12.42199993
         126	1	42	4	0.0	42.43899918	10.25	14.89099979
         127	1	43	1	0.0	46.01100159	11.79300022	11.77200031
         128	1	43	3	0.0	45.61800003	10.86299992	9.55099964
         129	1	43	4	0.0	47.42300034	12.46500015	11.83100033
         130	1	44	1	0.0	46.4090004	8.28199959	10.29100037
         131	1	44	3	0.0	44.29999924	7.82600021	11.36600018
         132	1	44	4	0.0	47.55599976	7.34299994	10.67399979
         133	1	45	1	0.0	43.48400116	5.92299986	9.62100029
         134	1	45	3	0.0	44.32600021	4.65899992	11.50399971
         135	1	45	4	0.0	43.55400085	4.95300007	8.44400024
         136	1	46	1	0.0	41.87099838	4.46500015	12.71899986
         137	1	46	3	0.0	41.68700027	2.26999998	11.72999954
         138	1	46	4	0.0	40.35200119	4.5999999	13.06499958
         139	1	47	1	0.0	43.33100128	1.06200004	13.63599968
         140	1	47	3	0.0	43.51300049	1.57299995	15.99699974
         141	1	47	4	0.0	44.60699844	0.75400001	12.89799976
         142	1	48	1	0.0	43.60499954	-0.99299997	16.7859993
         143	1	48	3	0.0	45.99599838	-0.53799999	16.48800087
         144	1	48	4	0.0	43.23899841	-2.46199989	16.82099915
         145	1	49	1	0.0	46.43899918	-0.46599999	19.23699951
         146	1	49	3	0.0	47.09600067	-2.72399998	18.86800003
         147	1	49	4	0.0	46.29199982	-0.52999997	20.7689991
         148	1	50	1	0.0	49.61600113	-1.99100006	17.8939991
         149	1	50	3	0.0	50.65100098	-2.80599999	15.91600037
         150	1	50	5	0.0	48.57300186	-2.58208789	17.23739552
         151	1	51	1	0.0	48.81200027	-1.65799999	14.22700024
         152	1	51	3	0.0	50.57799911	-1.13900006	12.69699955
         153	1	51	4	0.0	47.48400116	-1.06599998	13.70899963
         154	1	52	1	0.0	51.31299973	1.24000001	13.99199963
         155	1	52	3	0.0	52.33200073	0.99900001	16.17200089
         156	1	52	4	0.0	50.82899857	2.66400003	13.98099995
         157	1	53	1	0.0	54.94300079	1.42400002	15.20100021
         158	1	53	3	0.0	55.61199951	2.93600011	13.49100018
         159	1	53	4	0.0	55.76699829	0.147	15.14500046
         160	1	54	1	0.0	57.4070015	4.32800007	15.01200008
         161	1	54	3	0.0	59.38000107	3.36199999	15.9989996
         162	1	54	4	0.0	57.04100037	5.65899992	15.7130003
         163	1	55	1	0.0	61.06999969	4.54099989	14.03199959
         164	1	55	3	0.0	61.15800095	6.63899994	12.89700031
         165	1	55	4	0.0	61.39799881	3.5539999	12.86999989
         166	1	56	1	0.0	63.57400131	7.39499998	13.99699974
         167	1	56	3	0.0	64.65000153	6.37799978	12.09700012
         168	1	56	4	0.0	64.83799744	7.49100018	14.92700005
         169	1	57	1	0.0	64.78600311	8.83899975	10.7329998
         170	1	57	3	0.0	65.42199707	10.96000004	11.62800026
         171	1	57	4	0.0	63.89199829	9.3920002	9.63399982
         172	1	58	1	0.0	68.09600067	10.33699989	11.83100033
         173	1	58	3	0.0	68.22200012	11.66899967	9.86299992
         174	1	58	4	0.0	69.41799927	9.54100037	11.85200024
         175	1	59	1	0.0	68.63700104	14.05200005	11.31599998
         176	1	59	3	0.0	70.65799713	14.27299976	12.56900024
         177	1	59	4	0.0	67.88899994	15.13599968	12.08500004
         178	1	60	1	0.0	72.29699707	14.78899956	10.43700027
         179	1	60	3	0.0	71.96299744	16.96500015	11.4659996
         180	1	60	4	0.0	72.67299652	15.22799969	9.05300045
         181	1	61	1	0.0	74.02500153	16.55800056	13.33100033
         182	1	61	3	0.0	73.69000244	17.23900032	15.59000015
         183	1	61	5	0.0	73.54100037	16.31800845	12.64781303
         184	1	62	1	0.0	71.16400146	16.27300072	15.78299999
         185	1	62	3	0.0	72.09100342	14.32699966	16.87000084
         186	1	62	4	0.0	69.7559967	15.81000042	15.47200012
         187	1	63	1	0.0	71.86699677	15.43099976	19.44400024
         188	1	63	3	0.0	70.78800201	13.66499996	20.68600082
         189	1	63	4	0.0	72.13700104	16.48800087	20.52700043
         190	1	64	1	0.0	68.23500061	14.32499981	19.78899956
         191	1	64	3	0.0	68.33399963	13.52400017	17.55400085
         192	1	64	4	0.0	67.21299744	15.31900024	20.24699974
         193	1	65	1	0.0	65.8690033	12.25399971	17.64900017
         194	1	65	3	0.0	64.92900085	12.65699959	15.59799957
         195	1	65	4	0.0	64.73799896	11.40200043	18.16500092
         196	1	66	1	0.0	64.86199951	15.4090004	15.71899986
         197	1	66	3	0.0	62.58800125	14.72700024	16.32900047
         198	1	66	5	0.0	65.28099823	15.4582608	13.94149053
         199	1	67	1	0.0	61.56999969	15.65999985	13.93900013
         200	1	67	3	0.0	59.94400024	14.67399979	12.53999996
         201	1	67	4	0.0	61.31499863	17.07999992	13.45600033
         202	1	68	1	0.0	61.71900177	12.88300037	11.36299992
         203	1	68	3	0.0	62.23799896	10.91100025	12.61800003
         204	1	68	4	0.0	62.84199905	12.95199966	10.3210001
         205	1	69	1	0.0	60.0719986	9.48700047	11.68999958
         206	1	69	3	0.0	58.8769989	9.29500008	9.61999989
         207	1	69	4	0.0	58.99200058	9.46800041	12.79199982
         208	1	70	1	0.0	58.70800018	6.47399998	9.82800007
         209	1	70	3	0.0	58.20000076	5.24100018	11.80000019
         210	1	70	4	0.0	59.47900009	5.49700022	8.97099972
         211	1	71	1	0.0	55.45500183	5.03999996	11.14599991
         212	1	71	3	0.0	54.65399933	4.09899998	9.07299995
         213	1	71	4	0.0	54.24300003	5.85400009	11.49400043
         214	1	72	1	0.0	54.80099869	1.48699999	9.90299988
         215	1	72	3	0.0	52.93999863	1.398	11.4119997
         216	1	72	4	0.0	55.61899948	0.264	10.22200012
         217	1	73	1	0.0	51.31800079	0.149	9.49699974
         218	1	73	3	0.0	52.35100174	-1.73800004	8.47599983
         219	1	73	5	0.0	52.55699921	0.41508067	9.2995533
         220	1	74	1	0.0	50.73899841	-3.58100009	9.69099998
         221	1	74	3	0.0	50.9659996	-5.16499996	7.9460001
         222	1	74	4	0.0	49.94499969	-4.31699991	10.79699993
         223	1	75	1	0.0	49.49499893	-3.8440001	6.13600016
         224	1	75	3	0.0	51.76800156	-3.11100006	5.57999992
         225	1	75	4	0.0	48.49499893	-2.93400002	5.46500015
         226	1	76	1	0.0	51.95399857	-4.76900005	3.49000001
         227	1	76	3	0.0	51.41699982	-2.74300003	2.21300006
         228	1	76	4	0.0	52.01300049	-6.01300001	2.59299994
         229	1	77	1	0.0	53.98600006	-1.87800002	2.13899994
         230	1	77	3	0.0	53.30799866	0.37400001	1.85699999
         231	1	77	4	0.0	53.78300095	-2.15700006	0.616
         232	1	78	1	0.0	52.27299881	0.58999997	4.47100019
         233	1	78	3	0.0	53.49900055	0.79900002	6.52199984
         234	1	78	4	0.0	51.0	0.197	5.204
         235	1	79	1	0.0	54.70800018	3.204	5.81899977
         236	1	79	3	0.0	54.2179985	5.0619998	4.45699978
         237	1	79	4	0.0	56.14899826	2.84899998	5.42700005
         238	1	80	1	0.0	54.33100128	6.88000011	6.57700014
         239	1	80	3	0.0	56.1609993	7.28499985	8.04599953
         240	1	80	4	0.0	53.13399887	7.28599977	7.52199984
         241	1	81	1	0.0	56.99200058	9.59899998	6.76399994
         242	1	81	3	0.0	55.47900009	11.48799992	6.76300001
         243	1	81	4	0.0	57.8030014	9.97700024	5.48799992
         244	1	82	1	0.0	56.66500092	12.78299999	8.80700016
         245	1	82	3	0.0	58.96500015	12.85999966	9.43299961
         246	1	82	4	0.0	55.88399887	12.81099987	10.13899994
         247	1	83	1	0.0	59.24599838	15.50500011	8.63300037
         248	1	83	3	0.0	59.92499924	17.44799995	9.85099983
         249	1	83	5	0.0	58.02899933	14.59479431	7.65522261
         250	1	84	1	0.0	57.43000031	17.82999992	11.06799984
         251	1	84	3	0.0	55.94599915	17.92300034	12.93000031
         252	1	84	4	0.0	56.43999863	18.68000031	10.27799988
         253	1	85	1	0.0	57.29899979	15.95899963	14.30000019
         254	1	85	3	0.0	55.11899948	16.125	15.40299988
         255	1	85	4	0.0	57.74399948	17.10000038	15.26599979
         256	1	86	1	0.0	54.02600098	13.96199989	13.75599957
         257	1	86	3	0.0	51.68999863	14.43299961	13.58199978
         258	1	86	4	0.0	53.74700165	13.28999996	15.0710001
         259	1	87	1	0.0	52.02000046	16.97800064	12.48700047
         260	1	87	3	0.0	50.1590004	16.53000069	11.11699963
         261	1	87	4	0.0	52.52199936	18.38699913	12.30900002
         262	1	88	1	0.0	51.70199966	15.62800026	8.97299957
         263	1	88	3	0.0	53.60800171	14.13399982	8.9989996
         264	1	88	4	0.0	51.86299896	16.69099998	7.8670001
         265	1	89	1	0.0	52.41400146	12.31599998	7.22599983
         266	1	89	3	0.0	51.0530014	12.55799961	5.30900002
         267	1	89	4	0.0	51.78499985	11.11900043	7.92600012
         268	1	90	1	0.0	52.84500122	11.0710001	3.68000007
         269	1	90	3	0.0	54.0019989	9.06999969	4.26100016
         270	1	90	4	0.0	53.70800018	11.83500004	2.73000002
         271	1	91	1	0.0	52.57699966	7.47399998	2.55500007
         272	1	91	3	0.0	53.93999863	7.95800018	0.64200002
         273	1	91	4	0.0	51.36500168	6.91900015	1.77999997
         274	1	92	1	0.0	56.00500107	6.24800014	1.347
         275	1	92	3	0.0	55.35800171	4.05000019	0.57499999
         276	1	92	4	0.0	57.0890007	5.79199982	2.33500004
         277	1	93	1	0.0	56.22600174	4.57600021	-2.05200005
         278	1	93	3	0.0	58.49700165	4.84299994	-2.82299995
         279	1	93	4	0.0	55.63600159	5.21999979	-3.2809999
         280	1	94	1	0.0	59.2879982	2.29500008	-2.03299999
         281	1	94	3	0.0	60.71900177	1.43099999	-3.74399996
         282	1	94	4	0.0	59.47900009	1.09399998	-1.11099994
         283	1	95	1	0.0	58.85200119	1.64900005	-5.78299999
         284	1	95	3	0.0	59.76200104	2.55299997	-7.7670002
         285	1	95	4	0.0	57.54700089	1.14600003	-6.46099997
         286	1	96	1	0.0	60.15499878	5.09000015	-6.79899979
         287	1	96	3	0.0	61.29399872	5.75899982	-4.78800011
         288	1	96	4	0.0	58.94599915	5.82800007	-7.43400002

Bond Coeffs

           1	200.0	3.77
           2	200.0	2.41
           3	200.0	2.50
           4	200.0	1.54
           5	200.0	1.54
Bonds

           1	2	1	2
           2	4	1	3
           3	1	1	4
           4	3	2	4
           5	2	4	5
           6	4	4	6
           7	1	4	7
           8	3	5	7
           9	2	7	8
          10	4	7	9
          11	1	7	10
          12	3	8	10
          13	2	10	11
          14	5	10	12
          15	1	10	13
          16	3	11	13
          17	2	13	14
          18	4	13	15
          19	1	13	16
          20	3	14	16
          21	2	16	17
          22	4	16	18
          23	1	16	19
          24	3	17	19
          25	2	19	20
          26	4	19	21
          27	1	19	22
          28	3	20	22
          29	2	22	23
          30	4	22	24
          31	1	22	25
          32	3	23	25
          33	2	25	26
          34	4	25	27
          35	1	25	28
          36	3	26	28
          37	2	28	29
          38	4	28	30
          39	1	28	31
          40	3	29	31
          41	2	31	32
          42	4	31	33
          43	1	31	34
          44	3	32	34
          45	2	34	35
          46	4	34	36
          47	1	34	37
          48	3	35	37
          49	2	37	38
          50	4	37	39
          51	1	37	40
          52	3	38	40
          53	2	40	41
          54	4	40	42
          55	1	40	43
          56	3	41	43
          57	2	43	44
          58	4	43	45
          59	1	43	46
          60	3	44	46
          61	2	46	47
          62	4	46	48
          63	1	46	49
          64	3	47	49
          65	2	49	50
          66	4	49	51
          67	1	49	52
          68	3	50	52
          69	2	52	53
          70	4	52	54
          71	1	52	55
          72	3	53	55
          73	2	55	56
          74	4	55	57
          75	1	55	58
          76	3	56	58
          77	2	58	59
          78	4	58	60
          79	1	58	61
          80	3	59	61
          81	2	61	62
          82	4	61	63
          83	1	61	64
          84	3	62	64
          85	2	64	65
          86	4	64	66
          87	1	64	67
          88	3	65	67
          89	2	67	68
          90	4	67	69
          91	1	67	70
          92	3	68	70
          93	2	70	71
          94	4	70	72
          95	1	70	73
          96	3	71	73
          97	2	73	74
          98	4	73	75
          99	1	73	76
         100	3	74	76
         101	2	76	77
         102	5	76	78
         103	1	76	79
         104	3	77	79
         105	2	79	80
         106	4	79	81
         107	1	79	82
         108	3	80	82
         109	2	82	83
         110	4	82	84
         111	1	82	85
         112	3	83	85
         113	2	85	86
         114	4	85	87
         115	1	85	88
         116	3	86	88
         117	2	88	89
         118	4	88	90
         119	1	88	91
         120	3	89	91
         121	2	91	92
         122	4	91	93
         123	1	91	94
         124	3	92	94
         125	2	94	95
         126	4	94	96
         127	1	94	97
         128	3	95	97
         129	2	97	98
         130	4	97	99
         131	1	97	100
         132	3	98	100
         133	2	100	101
         134	5	100	102
         135	1	100	103
         136	3	101	103
         137	2	103	104
         138	4	103	105
         139	1	103	106
         140	3	104	106
         141	2	106	107
         142	4	106	108
         143	1	106	109
         144	3	107	109
         145	2	109	110
         146	4	109	111
         147	1	109	112
         148	3	110	112
         149	2	112	113
         150	4	112	114
         151	1	112	115
         152	3	113	115
         153	2	115	116
         154	4	115	117
         155	1	115	118
         156	3	116	118
         157	2	118	119
         158	4	118	120
         159	1	118	121
         160	3	119	121
         161	2	121	122
         162	4	121	123
         163	1	121	124
         164	3	122	124
         165	2	124	125
         166	4	124	126
         167	1	124	127
         168	3	125	127
         169	2	127	128
         170	4	127	129
         171	1	127	130
         172	3	128	130
         173	2	130	131
         174	4	130	132
         175	1	130	133
         176	3	131	133
         177	2	133	134
         178	4	133	135
         179	1	133	136
         180	3	134	136
         181	2	136	137
         182	4	136	138
         183	1	136	139
         184	3	137	139
         185	2	139	140
         186	4	139	141
         187	1	139	142
         188	3	140	142
         189	2	142	143
         190	4	142	144
         191	1	142	145
         192	3	143	145
         193	2	145	146
         194	4	145	147
         195	1	145	148
         196	3	146	148
         197	2	148	149
         198	5	148	150
         199	1	148	151
         200	3	149	151
         201	2	151	152
         202	4	151	153
         203	1	151	154
         204	3	152	154
         205	2	154	155
         206	4	154	156
         207	1	154	157
         208	3	155	157
         209	2	157	158
         210	4	157	159
         211	1	157	160
         212	3	158	160
         213	2	160	161
         214	4	160	162
         215	1	160	163
         216	3	161	163
         217	2	163	164
         218	4	163	165
         219	1	163	166
         220	3	164	166
         221	2	166	167
         222	4	166	168
         223	1	166	169
         224	3	167	169
         225	2	169	170
         226	4	169	171
         227	1	169	172
         228	3	170	172
         229	2	172	173
         230	4	172	174
         231	1	172	175
         232	3	173	175
         233	2	175	176
         234	4	175	177
         235	1	175	178
         236	3	176	178
         237	2	178	179
         238	4	178	180
         239	1	178	181
         240	3	179	181
         241	2	181	182
         242	5	181	183
         243	1	181	184
         244	3	182	184
         245	2	184	185
         246	4	184	186
         247	1	184	187
         248	3	185	187
         249	2	187	188
         250	4	187	189
         251	1	187	190
         252	3	188	190
         253	2	190	191
         254	4	190	192
         255	1	190	193
         256	3	191	193
         257	2	193	194
         258	4	193	195
         259	1	193	196
         260	3	194	196
         261	2	196	197
         262	5	196	198
         263	1	196	199
         264	3	197	199
         265	2	199	200
         266	4	199	201
         267	1	199	202
         268	3	200	202
         269	2	202	203
         270	4	202	204
         271	1	202	205
         272	3	203	205
         273	2	205	206
         274	4	205	207
         275	1	205	208
         276	3	206	208
         277	2	208	209
         278	4	208	210
         279	1	208	211
         280	3	209	211
         281	2	211	212
         282	4	211	213
         283	1	211	214
         284	3	212	214
         285	2	214	215
         286	4	214	216
         287	1	214	217
         288	3	215	217
         289	2	217	218
         290	5	217	219
         291	1	217	220
         292	3	218	220
         293	2	220	221
         294	4	220	222
         295	1	220	223
         296	3	221	223
         297	2	223	224
         298	4	223	225
         299	1	223	226
         300	3	224	226
         301	2	226	227
         302	4	226	228
         303	1	226	229
         304	3	227	229
         305	2	229	230
         306	4	229	231
         307	1	229	232
         308	3	230	232
         309	2	232	233
         310	4	232	234
         311	1	232	235
         312	3	233	235
         313	2	235	236
         314	4	235	237
         315	1	235	238
         316	3	236	238
         317	2	238	239
         318	4	238	240
         319	1	238	241
         320	3	239	241
         321	2	241	242
         322	4	241	243
         323	1	241	244
         324	3	242	244
         325	2	244	245
         326	4	244	246
         327	1	244	247
         328	3	245	247
         329	2	247	248
         330	5	247	249
         331	1	247	250
         332	3	248	250
         333	2	250	251
         334	4	250	252
         335	1	250	253
         336	3	251	253
         337	2	253	254
         338	4	253	255
         339	1	253	256
         340	3	254	256
         341	2	256	257
         342	4	256	258
         343	1	256	259
         344	3	257	259
         345	2	259	260
         346	4	259	261
         347	1	259	262
         348	3	260	262
         349	2	262	263
         350	4	262	264
         351	1	262	265
         352	3	263	265
         353	2	265	266
         354	4	265	267
         355	1	265	268
         356	3	266	268
         357	2	268	269
         358	4	268	270
         359	1	268	271
         360	3	269	271
         361	2	271	272
         362	4	271	273
         363	1	271	274
         364	3	272	274
         365	2	274	275
         366	4	274	276
         367	1	274	277
         368	3	275	277
         369	2	277	278
         370	4	277	279
         371	1	277	280
         372	3	278	280
         373	2	280	281
         374	4	280	282
         375	1	280	283
         376	3	281	283
         377	2	283	284
         378	4	283	285
         379	1	283	286
         380	3	284	286
         381	2	286	287
         382	4	286	288

