ITEM: TIMESTEP
0
ITEM: NUMBER OF ATOMS
288
ITEM: BOX BOUNDS ss ss ss
40.312 74.065
-7.513 18.72
-7.807 23.358
ITEM: ATOMS id type xs ys zs
1 1 0.122656 0.780124 0.479095
2 3 0.191805 0.797278 0.483876
3 4 0.10645 0.826516 0.453457
4 1 0.209285 0.732817 0.415434
5 3 0.190235 0.777799 0.350682
6 4 0.212751 0.676095 0.401027
7 1 0.262347 0.829833 0.344842
8 3 0.317246 0.810239 0.295395
9 4 0.291796 0.869706 0.363741
10 1 0.27162 0.752373 0.244922
11 3 0.309247 0.68917 0.28378
12 5 0.258555 0.7288 0.204314
13 1 0.351347 0.659703 0.210717
14 3 0.390602 0.733961 0.184791
15 4 0.340947 0.625091 0.173335
16 1 0.460729 0.682804 0.196855
17 3 0.488816 0.599931 0.207123
18 4 0.478446 0.715168 0.233852
19 1 0.540574 0.606336 0.140959
20 3 0.587888 0.643807 0.189828
21 4 0.559506 0.618991 0.0975132
22 1 0.620656 0.552586 0.212899
23 3 0.676029 0.607784 0.2249
24 4 0.631707 0.496093 0.216172
25 1 0.697982 0.613045 0.139836
26 3 0.724617 0.697023 0.142788
27 4 0.703641 0.602257 0.0924434
28 1 0.652505 0.74494 0.162811
29 3 0.654994 0.803644 0.221178
30 4 0.611827 0.759997 0.145997
31 1 0.668326 0.729692 0.284037
32 3 0.737534 0.715359 0.268506
33 4 0.649779 0.686502 0.30945
34 1 0.765887 0.750048 0.343687
35 3 0.760081 0.658865 0.349591
36 4 0.765562 0.769565 0.3897
37 1 0.837052 0.638356 0.330114
38 3 0.830593 0.560897 0.370865
39 4 0.879389 0.648725 0.316252
40 1 0.825408 0.608089 0.449382
41 3 0.783427 0.541913 0.47486
42 4 0.82923 0.645142 0.486251
43 1 0.719373 0.565928 0.424547
44 3 0.70767 0.475622 0.419349
45 4 0.687731 0.595052 0.401412
46 1 0.760673 0.461442 0.352671
47 3 0.773916 0.383105 0.389604
48 4 0.786034 0.47059 0.312819
49 1 0.829852 0.423703 0.444345
50 3 0.803692 0.357908 0.489588
51 4 0.859153 0.459116 0.466677
52 1 0.743756 0.41566 0.523119
53 3 0.713922 0.333016 0.527354
54 4 0.716173 0.459193 0.536788
55 1 0.684561 0.332291 0.44627
56 3 0.694634 0.242595 0.449318
57 4 0.666756 0.346129 0.402856
58 1 0.773087 0.244616 0.432023
59 3 0.776642 0.172912 0.479223
60 4 0.813765 0.258453 0.412578
61 1 0.781086 0.228224 0.553441
62 3 0.741119 0.16323 0.584502
63 4 0.790744 0.269394 0.586427
64 1 0.669807 0.201616 0.560051
65 3 0.654934 0.112225 0.55588
66 4 0.63541 0.237297 0.547505
67 1 0.684206 0.0999505 0.474378
68 3 0.69819 0.0137232 0.4927
69 4 0.698456 0.107879 0.428365
70 1 0.761917 0.0322113 0.544457
71 3 0.769087 0.0015248 0.614953
72 4 0.804847 0.0507376 0.54497
73 1 0.704974 0.0524911 0.647714
74 3 0.750037 0.0470781 0.709033
75 4 0.69022 0.00202036 0.668667
76 1 0.790715 0.127816 0.683684
77 3 0.830119 0.0638509 0.659843
78 5 0.761414 0.179576 0.67722
79 1 0.841555 0.167346 0.753891
80 3 0.862649 0.201693 0.706177
81 4 0.878233 0.124995 0.78832
82 1 0.825467 0.279648 0.753153
83 3 0.871626 0.296687 0.810172
84 4 0.782449 0.294667 0.763292
85 1 0.886232 0.39294 0.791112
86 3 0.892335 0.422026 0.861961
87 4 0.892721 0.438989 0.762843
88 1 0.811158 0.417451 0.882015
89 3 0.765295 0.348912 0.870432
90 4 0.783012 0.462585 0.876913
91 1 0.766154 0.313803 0.953441
92 3 0.701034 0.281592 0.948083
93 4 0.779486 0.295353 0.998717
94 1 0.664563 0.378302 0.947441
95 3 0.616864 0.383906 0.890807
96 4 0.651735 0.427096 0.968458
97 1 0.666133 0.365989 0.823488
98 3 0.655616 0.275073 0.834847
99 4 0.701538 0.36313 0.793486
100 1 0.583592 0.270804 0.80369
101 3 0.526087 0.238631 0.836483
102 5 0.607176 0.226026 0.74697
103 1 0.511006 0.312469 0.893663
104 3 0.474002 0.343346 0.83228
105 4 0.516043 0.3536 0.928157
106 1 0.402986 0.319712 0.868474
107 3 0.407579 0.407654 0.893855
108 4 0.369004 0.299356 0.897064
109 1 0.36779 0.444974 0.821723
110 3 0.301573 0.417947 0.808792
111 4 0.378781 0.46209 0.77664
112 1 0.266376 0.474364 0.869244
113 3 0.20413 0.492853 0.838986
114 4 0.257162 0.503831 0.910701
115 1 0.23038 0.565166 0.781229
116 3 0.165348 0.597377 0.797048
117 4 0.211922 0.531354 0.747377
118 1 0.187183 0.637594 0.875566
119 3 0.128552 0.687112 0.873608
120 4 0.213403 0.648572 0.917953
121 1 0.154149 0.753898 0.81046
122 3 0.110094 0.769641 0.751259
123 4 0.183243 0.798612 0.798781
124 1 0.107931 0.669348 0.722477
125 3 0.0952508 0.698471 0.649094
126 4 0.0630166 0.677124 0.728317
127 1 0.168844 0.735943 0.628237
128 3 0.157201 0.700492 0.556971
129 4 0.210678 0.76156 0.63013
130 1 0.180636 0.602104 0.580716
131 3 0.118152 0.584722 0.615209
132 4 0.214618 0.56631 0.593005
133 1 0.0939768 0.512179 0.559217
134 3 0.118923 0.463996 0.619637
135 4 0.0960507 0.475203 0.52145
136 1 0.0461884 0.4566 0.658623
137 3 0.0407371 0.372927 0.626889
138 4 0.00118508 0.461747 0.669726
139 1 0.0894439 0.326878 0.688047
140 3 0.094836 0.346358 0.763806
141 4 0.127248 0.315137 0.664367
142 1 0.0975616 0.248542 0.789122
143 3 0.1684 0.265886 0.77956
144 4 0.0867181 0.192544 0.790245
145 1 0.181525 0.268631 0.867768
146 3 0.20099 0.182556 0.855928
147 4 0.177169 0.266191 0.916926
148 1 0.27565 0.210498 0.824675
149 3 0.306314 0.17943 0.761206
150 5 0.244749 0.187966 0.803606
151 1 0.251829 0.223192 0.707011
152 3 0.304151 0.242976 0.657918
153 4 0.212485 0.245759 0.69039
154 1 0.325927 0.333664 0.699471
155 3 0.356116 0.324477 0.769421
156 4 0.311587 0.387946 0.699118
157 1 0.433473 0.340678 0.738264
158 3 0.453293 0.398315 0.683395
159 4 0.457885 0.291999 0.736467
160 1 0.506474 0.451378 0.7322
161 3 0.564928 0.414554 0.76387
162 4 0.49563 0.502116 0.754693
163 1 0.614997 0.459498 0.700754
164 3 0.617604 0.539473 0.664335
165 4 0.624715 0.421873 0.663469
166 1 0.689183 0.568292 0.699631
167 3 0.721062 0.529524 0.638665
168 4 0.726632 0.571951 0.729472
169 1 0.725091 0.623337 0.594898
170 3 0.743934 0.704189 0.623616
171 4 0.698604 0.644417 0.559634
172 1 0.823156 0.680441 0.63013
173 3 0.826889 0.731216 0.566982
174 4 0.862323 0.650097 0.630804
175 1 0.839185 0.822056 0.613605
176 3 0.899061 0.830481 0.65381
177 4 0.817024 0.863378 0.63828
178 1 0.947619 0.850151 0.5854
179 3 0.937724 0.9331 0.618418
180 4 0.958759 0.866885 0.540992
181 1 0.998815 0.917585 0.678261
182 3 0.98889 0.943544 0.750746
183 5 0.984475 0.908436 0.656339
184 1 0.914052 0.906721 0.756939
185 3 0.941516 0.832539 0.791818
186 4 0.872337 0.889071 0.74696
187 1 0.93488 0.874624 0.87441
188 3 0.902912 0.807304 0.914263
189 4 0.942879 0.914916 0.909161
190 1 0.827275 0.832463 0.88548
191 3 0.830208 0.801929 0.813765
192 4 0.796996 0.870354 0.900176
193 1 0.757177 0.753517 0.816814
194 3 0.729328 0.768879 0.751003
195 4 0.723669 0.721038 0.833371
196 1 0.727343 0.873785 0.754885
197 3 0.659971 0.847787 0.774459
198 5 0.739756 0.875663 0.69785
199 1 0.629811 0.883353 0.69777
200 3 0.581637 0.845767 0.65288
201 4 0.622256 0.937483 0.682272
202 1 0.634225 0.777494 0.615113
203 3 0.649601 0.702322 0.655383
204 4 0.667496 0.780124 0.581678
205 1 0.585429 0.648039 0.625606
206 3 0.550025 0.64072 0.559185
207 4 0.553432 0.647314 0.660966
208 1 0.545018 0.533183 0.565859
209 3 0.529968 0.486182 0.629135
210 4 0.567861 0.49594 0.53836
211 1 0.448642 0.478519 0.60815
212 3 0.42491 0.442649 0.541633
213 4 0.412734 0.509549 0.619317
214 1 0.429265 0.343079 0.568266
215 3 0.37413 0.339687 0.616685
216 4 0.4535 0.296459 0.578502
217 1 0.326075 0.292075 0.555238
218 3 0.356679 0.220143 0.522477
219 5 0.362783 0.302218 0.548903
220 1 0.308921 0.149888 0.561463
221 3 0.315646 0.0895056 0.505471
222 4 0.285397 0.121831 0.596952
223 1 0.272065 0.139862 0.447393
224 3 0.339407 0.167804 0.429552
225 4 0.242438 0.174551 0.425862
226 1 0.344917 0.104601 0.36249
227 3 0.329008 0.181832 0.321515
228 4 0.346665 0.0571799 0.333708
229 1 0.40512 0.214806 0.31914
230 3 0.385032 0.300652 0.310091
231 4 0.399105 0.20417 0.270271
232 1 0.354368 0.308886 0.393968
233 3 0.390691 0.316853 0.459779
234 4 0.316653 0.293905 0.417488
235 1 0.42651 0.408531 0.437221
236 3 0.411993 0.479358 0.393518
237 4 0.469203 0.394999 0.424643
238 1 0.415341 0.54866 0.461543
239 3 0.469558 0.564099 0.50868
240 4 0.379877 0.564137 0.491866
241 1 0.494178 0.652308 0.467544
242 3 0.449353 0.724317 0.467512
243 4 0.518206 0.666717 0.4266
244 1 0.48449 0.773682 0.533098
245 3 0.552632 0.776617 0.553185
246 4 0.461352 0.774749 0.575838
247 1 0.560957 0.877444 0.527515
248 3 0.581074 0.951511 0.566597
249 5 0.524901 0.842747 0.496141
250 1 0.507155 0.966073 0.605647
251 3 0.463188 0.969618 0.665394
252 4 0.477824 0.998475 0.580298
253 1 0.503274 0.894751 0.709353
254 3 0.438687 0.901079 0.744746
255 4 0.516458 0.938246 0.74035
256 1 0.406305 0.818625 0.691898
257 3 0.337096 0.83658 0.686315
258 4 0.398039 0.793009 0.734093
259 1 0.346873 0.933595 0.651179
260 3 0.291737 0.916517 0.60722
261 4 0.361746 0.987306 0.645468
262 1 0.337451 0.882133 0.538424
263 3 0.393921 0.825182 0.539259
264 4 0.342221 0.922655 0.502936
265 1 0.358546 0.75588 0.482368
266 3 0.318224 0.765105 0.420857
267 4 0.33991 0.71025 0.504829
268 1 0.371315 0.708421 0.368587
269 3 0.405594 0.632143 0.387229
270 4 0.396883 0.737544 0.338104
271 1 0.363375 0.571303 0.332488
272 3 0.403757 0.589753 0.271105
273 4 0.327467 0.550147 0.307621
274 1 0.464936 0.524568 0.293727
275 3 0.445768 0.440781 0.268956
276 4 0.497052 0.507186 0.325429
277 1 0.471484 0.460832 0.184662
278 3 0.538767 0.47101 0.159923
279 4 0.454004 0.485381 0.145227
280 1 0.562202 0.37388 0.185272
281 3 0.604598 0.340945 0.130371
282 4 0.567861 0.328098 0.214856
283 1 0.549285 0.349255 0.0649447
284 3 0.576245 0.383715 0.00128349
285 4 0.510621 0.33008 0.0431895
286 1 0.587888 0.480425 0.032344
287 3 0.621634 0.505928 0.0968715
288 4 0.552069 0.508558 0.0119686
