LAMMPS protain data file

         288  atoms
         382  bonds
           0  angles
           0  dihedrals
           0  impropers

           5  atom types
           5  bond types
           0  angle types
           0  dihedral types
           0  improper types

-200.0	200.0	xlo xhi
-200.0	200.0	ylo yhi
-200.0	200.0	zlo zhi

Masses

           1	27.0
           2	14.0
           3	28.0
           4	60.0
           5	60.0

Atoms

           1	1	1	1	0.0	-7.61000013	-12.37300014	-9.73499966
           2	1	1	3	0.0	-8.52499962	-12.09599972	-7.52699995
           3	1	1	4	0.0	-8.51900005	-12.11900043	-10.93999958
           4	1	2	1	0.0	-8.29100037	-9.31499958	-7.55000019
           5	1	2	3	0.0	-10.31700039	-8.3760004	-8.43000031
           6	1	2	4	0.0	-7.5	-7.98799992	-7.6869998
           7	1	3	1	0.0	-11.93900013	-9.3210001	-6.34600019
           8	1	3	3	0.0	-13.62300014	-7.60699987	-6.56500006
           9	1	3	4	0.0	-12.46399975	-10.06599998	-5.11399984
          10	1	4	1	0.0	-11.85999966	-5.55700016	-6.0619998
          11	1	4	3	0.0	-10.53600025	-5.32499981	-4.09899998
          12	1	4	5	0.0	-11.56999969	-4.36867615	-6.454472
          13	1	5	1	0.0	-10.36299992	-2.53299999	-4.34200001
          14	1	5	3	0.0	-12.48799992	-2.30100012	-3.26799989
          15	1	5	4	0.0	-10.09399986	-1.18700004	-5.01200008
          16	1	6	1	0.0	-11.41399956	-2.11100006	-0.70300001
          17	1	6	3	0.0	-9.55000019	-0.963	0.28799999
          18	1	6	4	0.0	-11.54199982	-3.43099999	0.095
          19	1	7	1	0.0	-11.1260004	0.81999999	1.72899997
          20	1	7	3	0.0	-11.19400024	-0.66299999	3.58100009
          21	1	7	4	0.0	-12.26500034	1.745	2.15899992
          22	1	8	1	0.0	-8.8760004	0.244	4.73400021
          23	1	8	3	0.0	-9.86699963	-0.47499999	6.79400015
          24	1	8	4	0.0	-7.60699987	1.028	5.08199978
          25	1	9	1	0.0	-11.66100025	1.64699996	6.99599981
          26	1	9	3	0.0	-13.41499996	0.46599999	8.15999985
          27	1	9	4	0.0	-12.32600021	3.01399994	6.84700012
          28	1	10	1	0.0	-13.86699963	-1.33899999	6.04300022
          29	1	10	3	0.0	-14.02000046	-3.62100005	6.75
          30	1	10	4	0.0	-14.39900017	-1.52400005	4.62900019
          31	1	11	1	0.0	-11.31799984	-3.92700005	7.12400007
          32	1	11	3	0.0	-11.43999958	-3.03200006	9.37100029
          33	1	11	4	0.0	-9.89999962	-4.01200008	6.51300001
          34	1	12	1	0.0	-10.96000004	-5.3670001	10.61499977
          35	1	12	3	0.0	-8.9289999	-4.1079998	10.36800003
          36	1	12	4	0.0	-10.52099991	-6.82800007	10.80700016
          37	1	13	1	0.0	-9.01299953	-3.00900006	12.96100044
          38	1	13	3	0.0	-6.59499979	-2.84699988	12.93000031
          39	1	13	4	0.0	-9.53499985	-2.77600002	14.40200043
          40	1	14	1	0.0	-6.21600008	-5.5710001	13.01200008
          41	1	14	3	0.0	-4.25299978	-5.44999981	11.6789999
          42	1	14	4	0.0	-6.32999992	-7.06400013	13.3380003
          43	1	15	1	0.0	-5.49399996	-4.86800003	9.28600025
          44	1	15	3	0.0	-3.63499999	-3.46099997	8.78899956
          45	1	15	4	0.0	-6.44299984	-4.93100023	8.09899998
          46	1	16	1	0.0	-4.63199997	-1.28100002	10.19200039
          47	1	16	3	0.0	-2.33299994	-0.86900002	10.77299976
          48	1	16	4	0.0	-5.60099983	-0.264	10.83100033
          49	1	17	1	0.0	-2.32599998	-2.57500005	12.92500019
          50	1	17	3	0.0	-0.047	-2.83299994	12.25500011
          51	1	17	4	0.0	-2.79999995	-3.39100003	14.12699986
          52	1	18	1	0.0	-0.59299999	-4.86999989	10.44699955
          53	1	18	3	0.0	1.28400004	-4.0079999	9.18500042
          54	1	18	4	0.0	-1.23599994	-6.05200005	9.69900036
          55	1	19	1	0.0	-0.098	-2.06800008	7.9460001
          56	1	19	3	0.0	1.90900004	-0.79400003	8.11400032
          57	1	19	4	0.0	-1.13800001	-1.199	7.2579999
          58	1	20	1	0.0	1.49699998	0.047	10.61400032
          59	1	20	3	0.0	3.84200001	-0.142	11.03499985
          60	1	20	4	0.0	0.84500003	0.65100002	11.84599972
          61	1	21	1	0.0	3.852	-2.82200003	11.46800041
          62	1	21	3	0.0	5.88999987	-2.7980001	10.22299957
          63	1	21	4	0.0	3.54299998	-4.18900013	12.06299973
          64	1	22	1	0.0	4.73999977	-3.13599992	7.7750001
          65	1	22	3	0.0	6.64599991	-1.75600004	7.25099993
          66	1	22	4	0.0	3.76900005	-3.41899991	6.63600016
          67	1	23	1	0.0	5.35599995	0.62099999	7.72700024
          68	1	23	3	0.0	7.51999998	1.51600003	8.18200016
          69	1	23	4	0.0	4.33500004	1.70099998	8.07499981
          70	1	24	1	0.0	7.73099995	0.45899999	10.70699978
          71	1	24	3	0.0	9.64799976	-0.73299998	11.43799973
          72	1	24	4	0.0	7.26900005	0.574	12.15999985
          73	1	25	1	0.0	9.38000011	-2.7420001	9.46199989
          74	1	25	3	0.0	10.49199963	-4.14599991	11.09899998
          75	1	25	4	0.0	10.77299976	-2.34100008	8.95199966
          76	1	26	1	0.0	8.15499973	-4.5539999	12.61100006
          77	1	26	3	0.0	8.35700035	-2.52399993	13.87699986
          78	1	26	5	0.0	8.27600002	-5.49525086	12.18244889
          79	1	27	1	0.0	8.56999969	-5.89799976	15.03499985
          80	1	27	3	0.0	6.16800022	-6.08699989	15.0880003
          81	1	27	4	0.0	9.0909996	-6.18400002	16.44599915
          82	1	28	1	0.0	6.21600008	-8.69699955	14.01399994
          83	1	28	3	0.0	6.97800016	-10.40100002	15.51200008
          84	1	28	4	0.0	6.40799999	-9.29300022	12.61699963
          85	1	29	1	0.0	4.42000008	-11.21700001	16.19000053
          86	1	29	3	0.0	5.09700012	-13.4829998	16.61700058
          87	1	29	4	0.0	2.88899994	-11.13300037	16.2840004
          88	1	30	1	0.0	5.09499979	-14.23999977	13.95499992
          89	1	30	3	0.0	6.37699986	-13.48499966	12.09399986
          90	1	30	4	0.0	3.82200003	-14.73900032	13.26399994
          91	1	31	1	0.0	8.08699989	-15.60700035	12.11400032
          92	1	31	3	0.0	8.50300026	-15.48999977	9.75199986
          93	1	31	4	0.0	9.01599979	-16.71699905	12.60299969
          94	1	32	1	0.0	5.94399977	-16.03499985	9.03899956
          95	1	32	3	0.0	5.35900021	-14.45699978	7.31699991
          96	1	32	4	0.0	4.74100018	-16.9489994	8.88799953
          97	1	33	1	0.0	5.50699997	-12.25199986	8.95400047
          98	1	33	3	0.0	7.7670002	-11.5539999	8.72999954
          99	1	33	4	0.0	5.21600008	-11.375	10.18700027
         100	1	34	1	0.0	7.49599981	-10.80599976	6.01599979
         101	1	34	3	0.0	9.21199989	-11.5909996	4.55999994
         102	1	34	5	0.0	6.45900011	-8.93982715	5.2684824
         103	1	35	1	0.0	8.21399975	-14.15299988	4.38600016
         104	1	35	3	0.0	6.6869998	-13.26399994	2.773
         105	1	35	4	0.0	7.84000015	-15.57900047	4.87200022
         106	1	36	1	0.0	8.13300037	-14.09599972	0.57700002
         107	1	36	3	0.0	6.73899984	-16.04999924	0.66299999
         108	1	36	4	0.0	9.23900032	-14.57299995	-0.37900001
         109	1	37	1	0.0	4.68900013	-14.92399979	-0.85000002
         110	1	37	3	0.0	5.13100004	-14.63500023	-3.20000005
         111	1	37	4	0.0	3.45499992	-14.00500011	-0.75199997
         112	1	38	1	0.0	5.45499992	-17.30599976	-3.67499995
         113	1	38	3	0.0	4.61800003	-17.4109993	-5.93100023
         114	1	38	4	0.0	5.9749999	-18.7329998	-3.454
         115	1	39	1	0.0	2.01799989	-16.64999962	-5.22200012
         116	1	39	3	0.0	1.41799998	-17.69300079	-7.30600023
         117	1	39	4	0.0	2.20700002	-15.37899971	-6.06899977
         118	1	40	1	0.0	1.66600001	-20.29299927	-6.33500004
         119	1	40	3	0.0	0.62199998	-20.94599915	-8.40499973
         120	1	40	4	0.0	1.70899999	-21.51799965	-5.42000008
         121	1	41	1	0.0	-1.86800003	-20.01000023	-7.78499985
         122	1	41	3	0.0	-3.13700008	-18.9090004	-9.50199986
         123	1	41	4	0.0	-3.10599995	-20.22500038	-6.91699982
         124	1	42	1	0.0	-1.34599996	-16.86499977	-9.85700035
         125	1	42	3	0.0	-3.24399996	-15.55300045	-10.51599979
         126	1	42	4	0.0	-1.36199999	-17.38100052	-11.30099964
         127	1	43	1	0.0	-4.16599989	-15.10700035	-7.98899984
         128	1	43	3	0.0	-4.59800005	-12.79899979	-8.51000023
         129	1	43	4	0.0	-4.76900005	-15.44799995	-6.61299992
         130	1	44	1	0.0	-1.995	-12.00500011	-8.00199986
         131	1	44	3	0.0	-0.42899999	-13.03600025	-9.52600002
         132	1	44	4	0.0	-1.23500001	-11.47900009	-6.78100014
         133	1	45	1	0.0	-0.13600001	-10.73499966	-11.10700035
         134	1	45	3	0.0	1.86000001	-11.15999985	-9.85200024
         135	1	45	4	0.0	-0.114	-9.22399998	-11.31900024
         136	1	46	1	0.0	2.95900011	-12.86600018	-11.69099998
         137	1	46	3	0.0	4.24100018	-10.89299965	-12.17800045
         138	1	46	4	0.0	3.06800008	-13.96500015	-12.7840004
         139	1	47	1	0.0	6.41300011	-11.55599976	-10.56700039
         140	1	47	3	0.0	7.29199982	-13.52999973	-9.52099991
         141	1	47	4	0.0	6.12099981	-10.43799973	-9.54899979
         142	1	48	1	0.0	9.91300011	-12.76200008	-9.60499954
         143	1	48	3	0.0	9.51299953	-12.19900036	-7.31400013
         144	1	48	4	0.0	11.24699974	-12.08899975	-9.93999958
         145	1	49	1	0.0	10.58199978	-14.49800014	-6.29799986
         146	1	49	3	0.0	12.12300014	-12.79599953	-5.55700016
         147	1	49	4	0.0	11.60200024	-15.60400009	-6.04400015
         148	1	50	1	0.0	10.31999969	-11.67700005	-3.79299998
         149	1	50	3	0.0	9.80300045	-9.39099979	-3.37299991
         150	1	50	5	0.0	10.02400017	-10.73026648	-2.4727094
         151	1	51	1	0.0	7.95300007	-9.18799973	-5.42500019
         152	1	51	3	0.0	6.50199986	-7.99800014	-3.92499995
         153	1	51	4	0.0	7.36199999	-9.25699997	-6.83300018
         154	1	52	1	0.0	5.37799978	-10.26099968	-2.81399989
         155	1	52	3	0.0	6.62799978	-11.71899986	-1.38800001
         156	1	52	4	0.0	4.22100019	-11.15100002	-3.22300005
         157	1	53	1	0.0	5.51100016	-10.71700001	0.94999999
         158	1	53	3	0.0	3.27699995	-9.99400043	1.45500004
         159	1	53	4	0.0	6.44799995	-9.82499981	1.75199997
         160	1	54	1	0.0	2.9000001	-11.91600037	3.48300004
         161	1	54	3	0.0	4.08799982	-11.86299992	5.56500006
         162	1	54	4	0.0	2.37899995	-13.34700012	3.30900002
         163	1	55	1	0.0	1.93200004	-10.66899967	6.99700022
         164	1	55	3	0.0	-0.42399999	-11.09500027	7.03100014
         165	1	55	4	0.0	2.0	-9.13099957	7.05900002
         166	1	56	1	0.0	-0.47499999	-11.91100025	9.70400047
         167	1	56	3	0.0	-0.83099997	-9.65299988	10.35099983
         168	1	56	4	0.0	-0.084	-12.57999992	10.99600029
         169	1	57	1	0.0	-3.61599994	-9.94799995	10.33199978
         170	1	57	3	0.0	-5.00299978	-11.72900009	11.13199997
         171	1	57	4	0.0	-4.65999985	-9.46800041	9.30599976
         172	1	58	1	0.0	-4.45100021	-11.21899986	13.82900047
         173	1	58	3	0.0	-6.66800022	-10.35200024	13.71100044
         174	1	58	4	0.0	-3.93199992	-10.63799953	15.14099979
         175	1	59	1	0.0	-7.86299992	-12.80799961	14.39099979
         176	1	59	3	0.0	-7.55299997	-13.82499981	16.55699921
         177	1	59	4	0.0	-8.375	-14.12899971	13.71899986
         178	1	60	1	0.0	-8.64599991	-11.79300022	18.04100037
         179	1	60	3	0.0	-10.17700005	-13.64000034	18.25200081
         180	1	60	4	0.0	-9.6420002	-10.6619997	18.3390007
         181	1	61	1	0.0	-8.9090004	-14.78999996	20.38199997
         182	1	61	3	0.0	-8.53800011	-17.13999939	20.45800018
         183	1	61	5	0.0	-8.45100021	-14.14568332	20.13749668
         184	1	62	1	0.0	-7.95200014	-17.41500092	17.75799942
         185	1	62	3	0.0	-5.83099985	-17.56699944	18.89599991
         186	1	62	4	0.0	-7.70599985	-17.17099953	16.26300049
         187	1	63	1	0.0	-5.75199986	-20.37700081	18.80699921
         188	1	63	3	0.0	-3.57200003	-21.08699989	18.12599945
         189	1	63	4	0.0	-6.23999977	-21.75	19.3390007
         190	1	64	1	0.0	-3.86800003	-20.12100029	15.46899986
         191	1	64	3	0.0	-4.28599977	-17.78300095	15.30700016
         192	1	64	4	0.0	-4.296	-21.08799934	14.34700012
         193	1	65	1	0.0	-2.68899989	-17.40399933	13.09500027
         194	1	65	3	0.0	-4.00299978	-16.05400085	11.60000038
         195	1	65	4	0.0	-1.40900004	-17.38299942	12.24600029
         196	1	66	1	0.0	-6.08599997	-17.83200073	11.41899967
         197	1	66	3	0.0	-4.85300016	-18.12400055	9.40600014
         198	1	66	5	0.0	-4.86100006	-16.6003808	10.8847957
         199	1	67	1	0.0	-6.84100008	-16.99200058	7.78800011
         200	1	67	3	0.0	-6.94099998	-15.47500038	5.93200016
         201	1	67	4	0.0	-8.14299965	-17.63400078	7.28700018
         202	1	68	1	0.0	-6.37599993	-13.19099998	7.49300003
         203	1	68	3	0.0	-4.10200024	-12.93799973	8.24699974
         204	1	68	4	0.0	-7.10400009	-12.24699974	8.4630003
         205	1	69	1	0.0	-3.25399995	-11.78199959	5.80700016
         206	1	69	3	0.0	-4.24300003	-10.24499989	4.26900005
         207	1	69	4	0.0	-2.69000006	-12.89400005	4.90799999
         208	1	70	1	0.0	-1.93900001	-8.73700047	3.95499992
         209	1	70	3	0.0	0.28400001	-9.65799999	3.80999994
         210	1	70	4	0.0	-1.72300005	-7.33900023	4.63000011
         211	1	71	1	0.0	0.389	-9.43200016	0.96700001
         212	1	71	3	0.0	-0.042	-7.32000017	-0.045
         213	1	71	4	0.0	-0.032	-10.2869997	-0.25799999
         214	1	72	1	0.0	2.58999991	-6.46400023	0.014
         215	1	72	3	0.0	3.64299989	-7.84200001	-1.65499997
         216	1	72	4	0.0	3.72099996	-5.85200024	0.83600003
         217	1	73	1	0.0	3.68899989	-5.76499987	-3.57500005
         218	1	73	3	0.0	4.84299994	-3.91000009	-2.5999999
         219	1	73	5	0.0	2.96499991	-6.05907268	-4.57345228
         220	1	74	1	0.0	6.60099983	-3.59299994	-4.68599987
         221	1	74	3	0.0	6.92999983	-1.20899999	-4.79300022
         222	1	74	4	0.0	7.69799995	-4.07499981	-5.6420002
         223	1	75	1	0.0	4.53000021	-0.69599998	-6.06500006
         224	1	75	3	0.0	3.77999997	-0.428	-3.7809999
         225	1	75	4	0.0	3.36899996	-0.85299999	-7.05200005
         226	1	76	1	0.0	3.6960001	2.34299994	-3.94000006
         227	1	76	3	0.0	1.41100001	1.97800004	-4.45300007
         228	1	76	4	0.0	3.82299995	3.796	-4.41900015
         229	1	77	1	0.0	0.68099999	1.48199999	-1.81200004
         230	1	77	3	0.0	-1.16299999	0.089	-2.40700006
         231	1	77	4	0.0	-0.27399999	2.6789999	-1.91400003
         232	1	78	1	0.0	0.37400001	-1.97000003	-3.47199988
         233	1	78	3	0.0	1.34300005	-3.52999997	-1.92299998
         234	1	78	4	0.0	1.27699995	-2.5250001	-4.59000015
         235	1	79	1	0.0	-1.09099996	-4.09600019	-0.69599998
         236	1	79	3	0.0	-3.36599994	-4.07600021	-1.29200006
         237	1	79	4	0.0	-1.09099996	-3.33200002	0.63700002
         238	1	80	1	0.0	-3.77600002	-6.7750001	-0.77999997
         239	1	80	3	0.0	-3.39700007	-8.10599995	1.14900005
         240	1	80	4	0.0	-3.64100003	-7.83500004	-1.88300002
         241	1	81	1	0.0	-6.04500008	-8.14000034	1.93700004
         242	1	81	3	0.0	-7.41400003	-9.5010004	0.509
         243	1	81	4	0.0	-7.1500001	-7.29199982	2.58100009
         244	1	82	1	0.0	-7.22900009	-11.76099968	2.17799997
         245	1	82	3	0.0	-7.079	-12.06799984	4.5710001
         246	1	82	4	0.0	-6.38700008	-12.9119997	1.51800001
         247	1	83	1	0.0	-9.68299961	-12.99699974	4.84200001
         248	1	83	3	0.0	-10.34500027	-15.05799961	5.86899996
         249	1	83	5	0.0	-9.03899956	-11.63124026	5.70859536
         250	1	84	1	0.0	-9.84799957	-16.55200005	3.46700001
         251	1	84	3	0.0	-8.7840004	-18.26600075	2.15199995
         252	1	84	4	0.0	-10.98499966	-16.63899994	2.43700004
         253	1	85	1	0.0	-6.29699993	-17.8560009	3.28299999
         254	1	85	3	0.0	-5.5079999	-18.98999977	1.31299996
         255	1	85	4	0.0	-6.54500008	-19.25699997	3.84200001
         256	1	86	1	0.0	-5.02199984	-16.57799911	-0.06
         257	1	86	3	0.0	-5.4749999	-17.0340004	-2.375
         258	1	86	4	0.0	-3.63499999	-17.2689991	-0.089
         259	1	87	1	0.0	-8.14099979	-17.72599983	-1.93299997
         260	1	87	3	0.0	-8.50399971	-16.52099991	-3.97099996
         261	1	87	4	0.0	-9.35999966	-18.39900017	-1.29400003
         262	1	88	1	0.0	-9.35200024	-14.21899986	-2.71099997
         263	1	88	3	0.0	-8.16899967	-13.13199997	-0.954
         264	1	88	4	0.0	-10.8739996	-13.97200012	-2.69899988
         265	1	89	1	0.0	-7.63500023	-10.83399963	-2.56900001
         266	1	89	3	0.0	-9.14299965	-9.53999996	-3.96600008
         267	1	89	4	0.0	-6.26200008	-10.81000042	-3.23000002
         268	1	90	1	0.0	-8.80099964	-7.204	-2.43700004
         269	1	90	3	0.0	-6.78299999	-6.37400007	-1.38900006
         270	1	90	4	0.0	-9.92099953	-6.74100018	-1.49199998
         271	1	91	1	0.0	-6.44299984	-4.29099989	-3.21199989
         272	1	91	3	0.0	-8.09000015	-2.96099997	-2.04999995
         273	1	91	4	0.0	-6.28399992	-3.59200001	-4.57600021
         274	1	92	1	0.0	-6.31699991	-2.05100012	-0.14300001
         275	1	92	3	0.0	-5.0	-0.234	-1.02600002
         276	1	92	4	0.0	-5.44000006	-2.33800006	1.09500003
         277	1	93	1	0.0	-6.99700022	1.67700005	-0.48300001
         278	1	93	3	0.0	-7.875	2.41899991	1.61500001
         279	1	93	4	0.0	-8.2510004	2.171	-1.23399997
         280	1	94	1	0.0	-5.47800016	3.41400003	2.53299999
         281	1	94	3	0.0	-5.85699987	5.48999977	3.68499994
         282	1	94	4	0.0	-3.97000003	3.35299993	2.82999992
         283	1	95	1	0.0	-7.07600021	6.74599981	1.55900002
         284	1	95	3	0.0	-9.13399982	7.92600012	1.96599996
         285	1	95	4	0.0	-6.85900021	7.40799999	0.18099999
         286	1	96	1	0.0	-10.61699963	5.73799992	2.52600002
         287	1	96	3	0.0	-10.17700005	3.93899989	4.0619998
         288	1	96	4	0.0	-11.50800037	5.59600019	1.27699995

Bond Coeffs

           1	200.0	3.77
           2	200.0	2.41
           3	200.0	2.50
           4	200.0	1.54
           5	200.0	1.54
Bonds

           1	2	1	2
           2	4	1	3
           3	1	1	4
           4	3	2	4
           5	2	4	5
           6	4	4	6
           7	1	4	7
           8	3	5	7
           9	2	7	8
          10	4	7	9
          11	1	7	10
          12	3	8	10
          13	2	10	11
          14	5	10	12
          15	1	10	13
          16	3	11	13
          17	2	13	14
          18	4	13	15
          19	1	13	16
          20	3	14	16
          21	2	16	17
          22	4	16	18
          23	1	16	19
          24	3	17	19
          25	2	19	20
          26	4	19	21
          27	1	19	22
          28	3	20	22
          29	2	22	23
          30	4	22	24
          31	1	22	25
          32	3	23	25
          33	2	25	26
          34	4	25	27
          35	1	25	28
          36	3	26	28
          37	2	28	29
          38	4	28	30
          39	1	28	31
          40	3	29	31
          41	2	31	32
          42	4	31	33
          43	1	31	34
          44	3	32	34
          45	2	34	35
          46	4	34	36
          47	1	34	37
          48	3	35	37
          49	2	37	38
          50	4	37	39
          51	1	37	40
          52	3	38	40
          53	2	40	41
          54	4	40	42
          55	1	40	43
          56	3	41	43
          57	2	43	44
          58	4	43	45
          59	1	43	46
          60	3	44	46
          61	2	46	47
          62	4	46	48
          63	1	46	49
          64	3	47	49
          65	2	49	50
          66	4	49	51
          67	1	49	52
          68	3	50	52
          69	2	52	53
          70	4	52	54
          71	1	52	55
          72	3	53	55
          73	2	55	56
          74	4	55	57
          75	1	55	58
          76	3	56	58
          77	2	58	59
          78	4	58	60
          79	1	58	61
          80	3	59	61
          81	2	61	62
          82	4	61	63
          83	1	61	64
          84	3	62	64
          85	2	64	65
          86	4	64	66
          87	1	64	67
          88	3	65	67
          89	2	67	68
          90	4	67	69
          91	1	67	70
          92	3	68	70
          93	2	70	71
          94	4	70	72
          95	1	70	73
          96	3	71	73
          97	2	73	74
          98	4	73	75
          99	1	73	76
         100	3	74	76
         101	2	76	77
         102	5	76	78
         103	1	76	79
         104	3	77	79
         105	2	79	80
         106	4	79	81
         107	1	79	82
         108	3	80	82
         109	2	82	83
         110	4	82	84
         111	1	82	85
         112	3	83	85
         113	2	85	86
         114	4	85	87
         115	1	85	88
         116	3	86	88
         117	2	88	89
         118	4	88	90
         119	1	88	91
         120	3	89	91
         121	2	91	92
         122	4	91	93
         123	1	91	94
         124	3	92	94
         125	2	94	95
         126	4	94	96
         127	1	94	97
         128	3	95	97
         129	2	97	98
         130	4	97	99
         131	1	97	100
         132	3	98	100
         133	2	100	101
         134	5	100	102
         135	1	100	103
         136	3	101	103
         137	2	103	104
         138	4	103	105
         139	1	103	106
         140	3	104	106
         141	2	106	107
         142	4	106	108
         143	1	106	109
         144	3	107	109
         145	2	109	110
         146	4	109	111
         147	1	109	112
         148	3	110	112
         149	2	112	113
         150	4	112	114
         151	1	112	115
         152	3	113	115
         153	2	115	116
         154	4	115	117
         155	1	115	118
         156	3	116	118
         157	2	118	119
         158	4	118	120
         159	1	118	121
         160	3	119	121
         161	2	121	122
         162	4	121	123
         163	1	121	124
         164	3	122	124
         165	2	124	125
         166	4	124	126
         167	1	124	127
         168	3	125	127
         169	2	127	128
         170	4	127	129
         171	1	127	130
         172	3	128	130
         173	2	130	131
         174	4	130	132
         175	1	130	133
         176	3	131	133
         177	2	133	134
         178	4	133	135
         179	1	133	136
         180	3	134	136
         181	2	136	137
         182	4	136	138
         183	1	136	139
         184	3	137	139
         185	2	139	140
         186	4	139	141
         187	1	139	142
         188	3	140	142
         189	2	142	143
         190	4	142	144
         191	1	142	145
         192	3	143	145
         193	2	145	146
         194	4	145	147
         195	1	145	148
         196	3	146	148
         197	2	148	149
         198	5	148	150
         199	1	148	151
         200	3	149	151
         201	2	151	152
         202	4	151	153
         203	1	151	154
         204	3	152	154
         205	2	154	155
         206	4	154	156
         207	1	154	157
         208	3	155	157
         209	2	157	158
         210	4	157	159
         211	1	157	160
         212	3	158	160
         213	2	160	161
         214	4	160	162
         215	1	160	163
         216	3	161	163
         217	2	163	164
         218	4	163	165
         219	1	163	166
         220	3	164	166
         221	2	166	167
         222	4	166	168
         223	1	166	169
         224	3	167	169
         225	2	169	170
         226	4	169	171
         227	1	169	172
         228	3	170	172
         229	2	172	173
         230	4	172	174
         231	1	172	175
         232	3	173	175
         233	2	175	176
         234	4	175	177
         235	1	175	178
         236	3	176	178
         237	2	178	179
         238	4	178	180
         239	1	178	181
         240	3	179	181
         241	2	181	182
         242	5	181	183
         243	1	181	184
         244	3	182	184
         245	2	184	185
         246	4	184	186
         247	1	184	187
         248	3	185	187
         249	2	187	188
         250	4	187	189
         251	1	187	190
         252	3	188	190
         253	2	190	191
         254	4	190	192
         255	1	190	193
         256	3	191	193
         257	2	193	194
         258	4	193	195
         259	1	193	196
         260	3	194	196
         261	2	196	197
         262	5	196	198
         263	1	196	199
         264	3	197	199
         265	2	199	200
         266	4	199	201
         267	1	199	202
         268	3	200	202
         269	2	202	203
         270	4	202	204
         271	1	202	205
         272	3	203	205
         273	2	205	206
         274	4	205	207
         275	1	205	208
         276	3	206	208
         277	2	208	209
         278	4	208	210
         279	1	208	211
         280	3	209	211
         281	2	211	212
         282	4	211	213
         283	1	211	214
         284	3	212	214
         285	2	214	215
         286	4	214	216
         287	1	214	217
         288	3	215	217
         289	2	217	218
         290	5	217	219
         291	1	217	220
         292	3	218	220
         293	2	220	221
         294	4	220	222
         295	1	220	223
         296	3	221	223
         297	2	223	224
         298	4	223	225
         299	1	223	226
         300	3	224	226
         301	2	226	227
         302	4	226	228
         303	1	226	229
         304	3	227	229
         305	2	229	230
         306	4	229	231
         307	1	229	232
         308	3	230	232
         309	2	232	233
         310	4	232	234
         311	1	232	235
         312	3	233	235
         313	2	235	236
         314	4	235	237
         315	1	235	238
         316	3	236	238
         317	2	238	239
         318	4	238	240
         319	1	238	241
         320	3	239	241
         321	2	241	242
         322	4	241	243
         323	1	241	244
         324	3	242	244
         325	2	244	245
         326	4	244	246
         327	1	244	247
         328	3	245	247
         329	2	247	248
         330	5	247	249
         331	1	247	250
         332	3	248	250
         333	2	250	251
         334	4	250	252
         335	1	250	253
         336	3	251	253
         337	2	253	254
         338	4	253	255
         339	1	253	256
         340	3	254	256
         341	2	256	257
         342	4	256	258
         343	1	256	259
         344	3	257	259
         345	2	259	260
         346	4	259	261
         347	1	259	262
         348	3	260	262
         349	2	262	263
         350	4	262	264
         351	1	262	265
         352	3	263	265
         353	2	265	266
         354	4	265	267
         355	1	265	268
         356	3	266	268
         357	2	268	269
         358	4	268	270
         359	1	268	271
         360	3	269	271
         361	2	271	272
         362	4	271	273
         363	1	271	274
         364	3	272	274
         365	2	274	275
         366	4	274	276
         367	1	274	277
         368	3	275	277
         369	2	277	278
         370	4	277	279
         371	1	277	280
         372	3	278	280
         373	2	280	281
         374	4	280	282
         375	1	280	283
         376	3	281	283
         377	2	283	284
         378	4	283	285
         379	1	283	286
         380	3	284	286
         381	2	286	287
         382	4	286	288

