ITEM: TIMESTEP
0
ITEM: NUMBER OF ATOMS
288
ITEM: BOX BOUNDS ss ss ss
-14.439 12.163
-21.79 7.966
-12.824 20.498
ITEM: ATOMS id type xs ys zs
1 1 0.25671 0.316474 0.0927015
2 3 0.222314 0.325783 0.158964
3 4 0.22254 0.32501 0.0565392
4 1 0.23111 0.419243 0.158274
5 3 0.154951 0.4508 0.131865
6 4 0.260845 0.463839 0.154162
7 1 0.0939779 0.419042 0.194406
8 3 0.0306744 0.476643 0.187834
9 4 0.0742426 0.394005 0.231379
10 1 0.0969476 0.545537 0.202929
11 3 0.146718 0.553334 0.261839
12 5 0.107849 0.585473 0.191151
13 1 0.153222 0.647164 0.254547
14 3 0.0733404 0.65496 0.286778
15 4 0.163334 0.692398 0.23444
16 1 0.113713 0.661346 0.363754
17 3 0.183783 0.699926 0.393494
18 4 0.108902 0.616985 0.387702
19 1 0.124539 0.759847 0.436738
20 3 0.121983 0.710008 0.492317
21 4 0.0817232 0.790933 0.449643
22 1 0.20912 0.740489 0.526919
23 3 0.171867 0.716326 0.58874
24 4 0.256823 0.766837 0.537363
25 1 0.104428 0.787639 0.594802
26 3 0.0384934 0.74795 0.629734
27 4 0.0794301 0.83358 0.590331
28 1 0.0215022 0.68729 0.566203
29 3 0.0157507 0.6106 0.58742
30 4 0.00150365 0.681073 0.523768
31 1 0.117322 0.600316 0.598644
32 3 0.112736 0.630394 0.666076
33 4 0.170626 0.597459 0.580307
34 1 0.13078 0.551922 0.703409
35 3 0.207127 0.594233 0.695997
36 4 0.147282 0.502823 0.709171
37 1 0.20397 0.631167 0.773813
38 3 0.294865 0.636611 0.772883
39 4 0.184347 0.638997 0.817058
40 1 0.309112 0.545067 0.775344
41 3 0.382904 0.549133 0.73534
42 4 0.304827 0.494892 0.785127
43 1 0.336253 0.568692 0.663526
44 3 0.406135 0.615977 0.648611
45 4 0.300579 0.566575 0.627903
46 1 0.368656 0.689239 0.690715
47 3 0.455079 0.703085 0.708151
48 4 0.332231 0.723417 0.709891
49 1 0.455342 0.645752 0.772733
50 3 0.541012 0.637082 0.752626
51 4 0.437523 0.618329 0.808805
52 1 0.520487 0.568625 0.698367
53 3 0.591046 0.597594 0.660495
54 4 0.496316 0.528902 0.67592
55 1 0.539095 0.662791 0.623312
56 3 0.61454 0.705606 0.628354
57 4 0.5 0.691995 0.602665
58 1 0.599053 0.733869 0.703379
59 3 0.687204 0.727517 0.716013
60 4 0.574543 0.754167 0.740352
61 1 0.68758 0.637451 0.729008
62 3 0.764191 0.638258 0.691645
63 4 0.675964 0.591511 0.746864
64 1 0.720961 0.626899 0.61818
65 3 0.79261 0.673276 0.602455
66 4 0.68446 0.617388 0.583999
67 1 0.744117 0.753159 0.61674
68 3 0.825464 0.783237 0.630394
69 4 0.705736 0.789454 0.627183
70 1 0.833396 0.747715 0.70617
71 3 0.905458 0.707656 0.728108
72 4 0.816029 0.75158 0.749775
73 1 0.895384 0.64014 0.668807
74 3 0.937185 0.592956 0.717934
75 4 0.947748 0.653616 0.653502
76 1 0.849335 0.579245 0.76331
77 3 0.856928 0.647466 0.801302
78 5 0.853883 0.547612 0.750449
79 1 0.864935 0.534077 0.836054
80 3 0.774641 0.527726 0.837645
81 4 0.88452 0.524466 0.878399
82 1 0.776445 0.440012 0.805414
83 3 0.80509 0.382746 0.850369
84 4 0.783663 0.419983 0.76349
85 1 0.708932 0.355323 0.870716
86 3 0.734381 0.279171 0.88353
87 4 0.65138 0.358146 0.873537
88 1 0.734306 0.25373 0.803643
89 3 0.782498 0.279103 0.747794
90 4 0.686452 0.236961 0.782906
91 1 0.846778 0.20779 0.748394
92 3 0.862416 0.211722 0.67751
93 4 0.881701 0.170487 0.763069
94 1 0.766221 0.193406 0.656113
95 3 0.74423 0.246438 0.604436
96 4 0.720998 0.16269 0.651582
97 1 0.749793 0.32054 0.653562
98 3 0.834749 0.343998 0.64684
99 4 0.738854 0.350013 0.690565
100 1 0.824562 0.369136 0.565392
101 3 0.889068 0.342754 0.521697
102 5 0.78558 0.431851 0.542959
103 1 0.851553 0.256654 0.516476
104 3 0.794151 0.28653 0.468069
105 4 0.837493 0.208731 0.531061
106 1 0.848508 0.25857 0.402167
107 3 0.796106 0.192902 0.404748
108 4 0.890083 0.242539 0.373477
109 1 0.719044 0.230743 0.359342
110 3 0.735659 0.240456 0.288818
111 4 0.672656 0.261628 0.362283
112 1 0.747839 0.150692 0.274563
113 3 0.716375 0.147164 0.20686
114 4 0.767386 0.102736 0.281196
115 1 0.618638 0.172738 0.228138
116 3 0.596083 0.137686 0.165596
117 4 0.625742 0.215452 0.202719
118 1 0.605406 0.0503092 0.194736
119 3 0.56616 0.0283641 0.132615
120 4 0.607022 0.00914103 0.222196
121 1 0.472558 0.0598199 0.151221
122 3 0.424855 0.0968208 0.0996939
123 4 0.426021 0.0525944 0.17727
124 1 0.492181 0.165513 0.0890403
125 3 0.420833 0.209605 0.0692636
126 4 0.49158 0.148172 0.0457056
127 1 0.386174 0.224593 0.145099
128 3 0.369935 0.302158 0.129464
129 4 0.363507 0.213133 0.186393
130 1 0.467784 0.328841 0.144709
131 3 0.526652 0.294193 0.0989737
132 4 0.496354 0.346518 0.181352
133 1 0.537666 0.371522 0.0515275
134 3 0.612698 0.357239 0.0891903
135 4 0.538493 0.422301 0.0451654
136 1 0.654011 0.299906 0.0340016
137 3 0.702203 0.366212 0.0193866
138 4 0.658108 0.262972 0.00120041
139 1 0.783851 0.343931 0.067733
140 3 0.816893 0.277591 0.0991237
141 4 0.772874 0.381503 0.0982834
142 1 0.91542 0.303401 0.0966029
143 3 0.900383 0.322322 0.165356
144 4 0.965566 0.326018 0.0865494
145 1 0.940568 0.24506 0.195847
146 3 0.998496 0.302258 0.218084
147 4 0.978911 0.207891 0.203469
148 1 0.930719 0.339864 0.271022
149 3 0.911285 0.416689 0.283626
150 5 0.919593 0.371681 0.310644
151 1 0.841741 0.423511 0.222045
152 3 0.787196 0.463503 0.267061
153 4 0.819525 0.421192 0.179791
154 1 0.744944 0.387451 0.300402
155 3 0.791933 0.338453 0.343197
156 4 0.701451 0.357541 0.288128
157 1 0.749944 0.372127 0.413361
158 3 0.665965 0.396424 0.428516
159 4 0.785167 0.402104 0.437429
160 1 0.651793 0.331832 0.489376
161 3 0.696451 0.333613 0.551858
162 4 0.632208 0.283741 0.484155
163 1 0.615405 0.37374 0.594832
164 3 0.52684 0.359423 0.595853
165 4 0.617961 0.425427 0.596693
166 1 0.524923 0.332 0.67607
167 3 0.51154 0.407884 0.695486
168 4 0.539621 0.309517 0.714843
169 1 0.406849 0.39797 0.694916
170 3 0.35471 0.338117 0.718924
171 4 0.367604 0.414101 0.664126
172 1 0.37546 0.355256 0.799862
173 3 0.292121 0.384393 0.796321
174 4 0.39497 0.374782 0.839235
175 1 0.247199 0.301855 0.816728
176 3 0.258853 0.267677 0.88173
177 4 0.227953 0.257461 0.796561
178 1 0.217766 0.335966 0.926265
179 3 0.160214 0.273894 0.932597
180 4 0.180325 0.373975 0.935208
181 1 0.207879 0.235247 0.996519
182 3 0.221825 0.156271 0.9988
183 5 0.225096 0.2569 0.989181
184 1 0.243854 0.147029 0.917772
185 3 0.323585 0.141921 0.951924
186 4 0.253101 0.155229 0.872907
187 1 0.326554 0.0474862 0.949253
188 3 0.408503 0.0236255 0.928816
189 4 0.30821 0.00134427 0.965218
190 1 0.397376 0.0560895 0.849079
191 3 0.381663 0.134662 0.844217
192 4 0.381287 0.0235919 0.815407
193 1 0.441696 0.147399 0.777834
194 3 0.392301 0.192768 0.732969
195 4 0.489813 0.148105 0.752356
196 1 0.313999 0.133015 0.727537
197 3 0.360349 0.123202 0.667127
198 5 0.360048 0.174406 0.711506
199 1 0.285618 0.161245 0.61857
200 3 0.281859 0.212226 0.562871
201 4 0.236674 0.139669 0.603535
202 1 0.303098 0.288984 0.609717
203 3 0.38858 0.297486 0.632345
204 4 0.275731 0.320708 0.638827
205 1 0.420457 0.336336 0.55912
206 3 0.383279 0.387989 0.512964
207 4 0.441659 0.298965 0.532141
208 1 0.469889 0.438668 0.503541
209 3 0.553455 0.407716 0.49919
210 4 0.478009 0.48565 0.523798
211 1 0.557402 0.415311 0.413871
212 3 0.5412 0.486288 0.3835
213 4 0.541576 0.386578 0.377108
214 1 0.64014 0.515056 0.385271
215 3 0.679723 0.468746 0.335184
216 4 0.682655 0.535623 0.409939
217 1 0.681453 0.538547 0.277564
218 3 0.724833 0.600887 0.306824
219 5 0.654237 0.528664 0.247601
220 1 0.790918 0.611541 0.244223
221 3 0.803285 0.691659 0.241012
222 4 0.832155 0.595342 0.215533
223 1 0.713067 0.708899 0.202839
224 3 0.684873 0.717906 0.271382
225 4 0.669423 0.703623 0.173219
226 1 0.681716 0.81103 0.266611
227 3 0.59582 0.798763 0.251215
228 4 0.68649 0.85986 0.252236
229 1 0.568378 0.782094 0.330472
230 3 0.49906 0.73528 0.312616
231 4 0.532479 0.822322 0.327411
232 1 0.556838 0.666084 0.280655
233 3 0.593264 0.613658 0.327141
234 4 0.590783 0.647432 0.247104
235 1 0.501767 0.594636 0.363964
236 3 0.416247 0.595308 0.346078
237 4 0.501767 0.620312 0.403967
238 1 0.400835 0.504604 0.361443
239 3 0.415082 0.459874 0.419333
240 4 0.405909 0.468981 0.328342
241 1 0.31554 0.458731 0.442981
242 3 0.264078 0.412992 0.400126
243 4 0.274002 0.487229 0.462307
244 1 0.271032 0.337041 0.450213
245 3 0.276671 0.326724 0.522027
246 4 0.302684 0.29836 0.430406
247 1 0.178784 0.295503 0.53016
248 3 0.153898 0.22624 0.560981
249 5 0.202992 0.341402 0.556167
250 1 0.172581 0.176032 0.488896
251 3 0.212578 0.11843 0.449433
252 4 0.12984 0.173108 0.457986
253 1 0.306067 0.132209 0.483374
254 3 0.335727 0.0940987 0.424254
255 4 0.296745 0.0851257 0.50015
256 1 0.353996 0.175158 0.38305
257 3 0.336967 0.159833 0.313577
258 4 0.406135 0.151936 0.38218
259 1 0.236749 0.136578 0.326841
260 3 0.223104 0.177074 0.26568
261 4 0.190926 0.11396 0.346018
262 1 0.191226 0.254436 0.303493
263 3 0.235697 0.290967 0.356221
264 4 0.134013 0.262737 0.303853
265 1 0.25577 0.368195 0.307755
266 3 0.199083 0.411682 0.26583
267 4 0.307383 0.369001 0.287918
268 1 0.211939 0.490187 0.311716
269 3 0.287798 0.51808 0.343167
270 4 0.169837 0.505747 0.340076
271 1 0.300579 0.588083 0.288458
272 3 0.238666 0.63278 0.32333
273 4 0.306556 0.611574 0.247524
274 1 0.305315 0.663362 0.380559
275 3 0.354823 0.724425 0.35406
276 4 0.338283 0.653717 0.417712
277 1 0.279753 0.788648 0.370356
278 3 0.246748 0.813584 0.433317
279 4 0.232614 0.805249 0.347818
280 1 0.336854 0.847022 0.460867
281 3 0.322607 0.91679 0.495438
282 4 0.393542 0.844972 0.46978
283 1 0.276784 0.959 0.431637
284 3 0.199421 0.998656 0.443851
285 4 0.284941 0.981247 0.390283
286 1 0.143673 0.925124 0.460657
287 3 0.160214 0.864666 0.506752
288 4 0.11018 0.920352 0.423174
ITEM: TIMESTEP
1000
ITEM: NUMBER OF ATOMS
288
ITEM: BOX BOUNDS ss ss ss
-14.439 12.163
-21.79 7.966
-12.824 20.498
ITEM: ATOMS id type xs ys zs
1 1 0.239547 0.290641 0.114302
2 3 0.202439 0.309076 0.179125
3 4 0.216892 0.305888 0.0735575
4 1 0.204429 0.395412 0.173778
5 3 0.119854 0.396456 0.148913
6 4 0.22992 0.439829 0.164836
7 1 0.0703828 0.401264 0.211653
8 3 0.0151836 0.463865 0.19667
9 4 0.0533174 0.381144 0.250669
10 1 0.0707884 0.529595 0.214479
11 3 0.141368 0.546338 0.260003
12 5 0.0809011 0.564439 0.250401
13 1 0.133074 0.628752 0.264415
14 3 0.0618011 0.643004 0.305718
15 4 0.136429 0.67275 0.240745
16 1 0.104349 0.65465 0.371046
17 3 0.173254 0.69969 0.39749
18 4 0.102601 0.612413 0.396262
19 1 0.123788 0.753256 0.441636
20 3 0.135725 0.704628 0.498874
21 4 0.0772997 0.785231 0.45109
22 1 0.207817 0.741497 0.531719
23 3 0.173456 0.725818 0.593993
24 4 0.259147 0.763454 0.535994
25 1 0.108349 0.786314 0.597789
26 3 0.0414726 0.745485 0.626926
27 4 0.0830611 0.832864 0.595492
28 1 0.0235472 0.68683 0.576752
29 3 0.0300873 0.61005 0.595723
30 4 0.00326295 0.679322 0.532696
31 1 0.122515 0.601752 0.6065
32 3 0.115858 0.626107 0.673993
33 4 0.172231 0.600007 0.58887
34 1 0.141043 0.557266 0.713621
35 3 0.220866 0.594097 0.714801
36 4 0.152545 0.508549 0.721996
37 1 0.214484 0.635745 0.780373
38 3 0.305627 0.63286 0.787666
39 4 0.193408 0.646735 0.822075
40 1 0.321437 0.551019 0.780371
41 3 0.388751 0.553689 0.732691
42 4 0.314597 0.502902 0.79339
43 1 0.345057 0.571741 0.668458
44 3 0.397119 0.631107 0.644563
45 4 0.305889 0.565579 0.633686
46 1 0.376034 0.691784 0.693668
47 3 0.458536 0.708889 0.719398
48 4 0.337666 0.724382 0.70913
49 1 0.463525 0.650677 0.774066
50 3 0.547498 0.628627 0.760024
51 4 0.449531 0.62541 0.813118
52 1 0.52746 0.576247 0.700785
53 3 0.590611 0.597542 0.651597
54 4 0.504795 0.534579 0.681169
55 1 0.545504 0.667184 0.621814
56 3 0.611043 0.719385 0.628402
57 4 0.503103 0.693515 0.60267
58 1 0.607572 0.741911 0.701239
59 3 0.689717 0.733623 0.723321
60 4 0.580388 0.760459 0.738524
61 1 0.694426 0.648889 0.730306
62 3 0.765601 0.637967 0.6888
63 4 0.682488 0.603487 0.746415
64 1 0.726979 0.636706 0.619709
65 3 0.787576 0.689229 0.597613
66 4 0.694064 0.622755 0.585899
67 1 0.747955 0.760411 0.613698
68 3 0.827632 0.796187 0.63007
69 4 0.709368 0.794525 0.623154
70 1 0.842884 0.760523 0.698421
71 3 0.929804 0.730583 0.690571
72 4 0.824893 0.761981 0.738765
73 1 0.905839 0.65338 0.667527
74 3 0.960556 0.614462 0.709888
75 4 0.945669 0.665352 0.637837
76 1 0.943861 0.625085 0.779855
77 3 0.853998 0.627093 0.799395
78 5 0.893662 0.60369 0.792875
79 1 0.855981 0.555498 0.841325
80 3 0.81202 0.506486 0.790717
81 4 0.816816 0.589561 0.853109
82 1 0.828821 0.432877 0.822077
83 3 0.822295 0.374197 0.860925
84 4 0.87618 0.417112 0.797377
85 1 0.729626 0.366105 0.875206
86 3 0.710746 0.286139 0.875614
87 4 0.675677 0.390414 0.875192
88 1 0.751702 0.264579 0.810792
89 3 0.824394 0.295119 0.771703
90 4 0.704486 0.251325 0.788333
91 1 0.858487 0.217398 0.751673
92 3 0.866764 0.215462 0.68035
93 4 0.883419 0.178286 0.767244
94 1 0.782252 0.200806 0.659179
95 3 0.767011 0.261092 0.60939
96 4 0.73729 0.169429 0.65777
97 1 0.770875 0.326177 0.65756
98 3 0.860247 0.351339 0.643518
99 4 0.75838 0.355441 0.692043
100 1 0.849593 0.366331 0.572185
101 3 0.901588 0.337379 0.519236
102 5 0.886029 0.338996 0.546531
103 1 0.867887 0.257227 0.517374
104 3 0.805632 0.277451 0.466742
105 4 0.848672 0.214022 0.536108
106 1 0.859045 0.259276 0.405159
107 3 0.810146 0.193245 0.383463
108 4 0.902264 0.239074 0.377022
109 1 0.729205 0.229955 0.36583
110 3 0.747006 0.231 0.295238
111 4 0.683587 0.26133 0.3659
112 1 0.747003 0.146465 0.282073
113 3 0.711066 0.155766 0.215449
114 4 0.761297 0.0980382 0.292423
115 1 0.621324 0.165648 0.236853
116 3 0.601263 0.126605 0.177539
117 4 0.631622 0.208849 0.212203
118 1 0.606094 0.0475127 0.201332
119 3 0.556183 0.0226854 0.145584
120 4 0.605308 0.00831671 0.234297
121 1 0.473149 0.0587977 0.163091
122 3 0.433915 0.0995426 0.108856
123 4 0.429613 0.05103 0.192543
124 1 0.490786 0.16277 0.101307
125 3 0.418036 0.210446 0.0889079
126 4 0.487071 0.145488 0.0585719
127 1 0.386435 0.224742 0.15679
128 3 0.37867 0.305816 0.149473
129 4 0.366404 0.211617 0.198296
130 1 0.469518 0.327109 0.148811
131 3 0.511195 0.299858 0.0915975
132 4 0.499626 0.340689 0.184427
133 1 0.542248 0.368257 0.0592835
134 3 0.621571 0.355345 0.0899836
135 4 0.539727 0.416082 0.0503241
136 1 0.657067 0.297194 0.0415969
137 3 0.716887 0.351701 0.0247803
138 4 0.659623 0.261073 0.00739989
139 1 0.78707 0.331406 0.0706901
140 3 0.833173 0.265521 0.0874917
141 4 0.778007 0.370923 0.0987609
142 1 0.917722 0.298316 0.101652
143 3 0.888727 0.302337 0.171451
144 4 0.965129 0.324182 0.0888212
145 1 0.946567 0.24645 0.203127
146 3 0.998858 0.300595 0.230323
147 4 0.982746 0.206174 0.207475
148 1 0.932878 0.337914 0.277053
149 3 0.914061 0.414579 0.279851
150 5 0.889679 0.322849 0.305683
151 1 0.845908 0.420837 0.227365
152 3 0.779528 0.461741 0.260087
153 4 0.824385 0.417055 0.184298
154 1 0.74752 0.398293 0.305258
155 3 0.78651 0.353366 0.357279
156 4 0.699919 0.377512 0.287016
157 1 0.749578 0.379988 0.42071
158 3 0.666342 0.394707 0.43902
159 4 0.787011 0.410846 0.442799
160 1 0.652897 0.339224 0.49587
161 3 0.693332 0.357003 0.560224
162 4 0.637367 0.291928 0.489106
163 1 0.615614 0.377372 0.598568
164 3 0.53151 0.351422 0.604192
165 4 0.619565 0.429679 0.600962
166 1 0.521585 0.340582 0.679226
167 3 0.497229 0.407071 0.712879
168 4 0.536652 0.310345 0.716982
169 1 0.404521 0.405574 0.698405
170 3 0.348483 0.348012 0.725572
171 4 0.366974 0.41939 0.666951
172 1 0.370218 0.357865 0.798654
173 3 0.283783 0.390062 0.80624
174 4 0.39279 0.377637 0.83813
175 1 0.243585 0.309926 0.815814
176 3 0.258938 0.282662 0.879828
177 4 0.222358 0.26803 0.795775
178 1 0.205824 0.335616 0.921038
179 3 0.144416 0.280651 0.934342
180 4 0.172439 0.374731 0.933978
181 1 0.185528 0.234869 0.987738
182 3 0.158409 0.168036 0.954463
183 5 0.170544 0.207613 1.02418
184 1 0.237393 0.146634 0.916567
185 3 0.321264 0.131016 0.940734
186 4 0.243491 0.160655 0.871027
187 1 0.321467 0.0486543 0.944294
188 3 0.389597 0.0133388 0.909654
189 4 0.300375 0.00447786 0.960803
190 1 0.397918 0.0605731 0.848893
191 3 0.383574 0.138962 0.837623
192 4 0.375985 0.0271646 0.816094
193 1 0.435938 0.152356 0.778742
194 3 0.374605 0.200044 0.742557
195 4 0.481983 0.155569 0.751171
196 1 0.31156 0.14168 0.727097
197 3 0.349794 0.126058 0.662041
198 5 0.366702 0.134452 0.707824
199 1 0.285068 0.164362 0.618901
200 3 0.296475 0.214664 0.564545
201 4 0.236626 0.143081 0.60308
202 1 0.301249 0.289477 0.60273
203 3 0.387248 0.302097 0.619229
204 4 0.268357 0.320945 0.630541
205 1 0.41482 0.343352 0.556546
206 3 0.38239 0.396792 0.507414
207 4 0.445657 0.305574 0.534663
208 1 0.460211 0.443635 0.499402
209 3 0.55066 0.436112 0.487255
210 4 0.462612 0.491686 0.519908
211 1 0.551173 0.420945 0.414921
212 3 0.54647 0.49559 0.385089
213 4 0.540558 0.389881 0.378953
214 1 0.634584 0.518412 0.384572
215 3 0.674143 0.475869 0.331649
216 4 0.673449 0.542109 0.409768
217 1 0.685654 0.539956 0.278837
218 3 0.739467 0.597133 0.308815
219 5 0.645948 0.504112 0.265807
220 1 0.787714 0.618239 0.245979
221 3 0.798336 0.696568 0.232314
222 4 0.828862 0.601011 0.214104
223 1 0.712368 0.711864 0.202153
224 3 0.672869 0.726808 0.265268
225 4 0.672767 0.699103 0.168977
226 1 0.672992 0.813456 0.261378
227 3 0.584506 0.807488 0.251239
228 4 0.680787 0.861206 0.243229
229 1 0.558517 0.784803 0.320716
230 3 0.493826 0.734797 0.291898
231 4 0.522279 0.823252 0.316153
232 1 0.549037 0.668746 0.27453
233 3 0.571817 0.608093 0.319321
234 4 0.587254 0.650568 0.243567
235 1 0.491769 0.59574 0.355164
236 3 0.408808 0.581113 0.332534
237 4 0.495442 0.619554 0.395381
238 1 0.395637 0.50324 0.354392
239 3 0.398901 0.473377 0.41998
240 4 0.406768 0.467319 0.322589
241 1 0.308063 0.457667 0.431818
242 3 0.259325 0.403432 0.39515
243 4 0.266226 0.485614 0.44768
244 1 0.262507 0.336337 0.43979
245 3 0.258463 0.32602 0.511426
246 4 0.297077 0.299784 0.425856
247 1 0.170684 0.295538 0.518796
248 3 0.13453 0.223621 0.540412
249 5 0.220295 0.320626 0.506093
250 1 0.164082 0.17672 0.48325
251 3 0.214903 0.111342 0.499258
252 4 0.137621 0.165943 0.445849
253 1 0.295944 0.131519 0.46894
254 3 0.32626 0.102721 0.408695
255 4 0.290936 0.0837505 0.485098
256 1 0.351639 0.172868 0.37434
257 3 0.329258 0.150734 0.30707
258 4 0.403629 0.150925 0.36881
259 1 0.234559 0.135864 0.319599
260 3 0.199725 0.172512 0.263605
261 4 0.194742 0.108538 0.34096
262 1 0.19111 0.253004 0.288591
263 3 0.241952 0.294478 0.337199
264 4 0.136146 0.25751 0.292784
265 1 0.253282 0.366379 0.299252
266 3 0.204542 0.415837 0.256185
267 4 0.302153 0.36571 0.275421
268 1 0.21195 0.487408 0.29735
269 3 0.279841 0.530117 0.326969
270 4 0.167019 0.500295 0.323014
271 1 0.299376 0.583235 0.271934
272 3 0.243218 0.634316 0.305174
273 4 0.307914 0.604119 0.230913
274 1 0.29848 0.660892 0.365038
275 3 0.334093 0.721982 0.331692
276 4 0.332208 0.650198 0.400083
277 1 0.273968 0.784802 0.351919
278 3 0.245607 0.818089 0.410858
279 4 0.229821 0.799539 0.327905
280 1 0.32432 0.84731 0.443843
281 3 0.296378 0.914533 0.468555
282 4 0.381792 0.847299 0.448687
283 1 0.270814 0.958354 0.407941
284 3 0.189505 0.991472 0.423523
285 4 0.282177 0.979498 0.368702
286 1 0.13693 0.924132 0.435028
287 3 0.0606719 0.886621 0.457063
288 4 0.107736 0.919595 0.396533
ITEM: TIMESTEP
2000
ITEM: NUMBER OF ATOMS
288
ITEM: BOX BOUNDS ss ss ss
-14.7929 12.1093
-21.5511 7.72581
-12.715 20.4273
ITEM: ATOMS id type xs ys zs
1 1 0.268302 0.307213 0.101776
2 3 0.23518 0.319968 0.166923
3 4 0.226573 0.305613 0.071521
4 1 0.230787 0.405647 0.168591
5 3 0.151574 0.430135 0.148431
6 4 0.251905 0.453183 0.158677
7 1 0.0994027 0.406342 0.206159
8 3 0.0370611 0.468309 0.210133
9 4 0.0839068 0.382222 0.244827
10 1 0.0974458 0.533971 0.211929
11 3 0.158622 0.552699 0.262808
12 5 0.105218 0.49696 0.181025
13 1 0.145831 0.637654 0.263619
14 3 0.0749617 0.65683 0.304943
15 4 0.155816 0.681737 0.240762
16 1 0.116131 0.655361 0.374514
17 3 0.175412 0.709125 0.394532
18 4 0.122338 0.61082 0.39762
19 1 0.126944 0.754872 0.446539
20 3 0.135971 0.70833 0.505733
21 4 0.0853549 0.78832 0.458491
22 1 0.216465 0.7447 0.533585
23 3 0.187464 0.733477 0.600827
24 4 0.266299 0.771087 0.538716
25 1 0.116859 0.788456 0.602928
26 3 0.0522127 0.74257 0.630909
27 4 0.090658 0.834093 0.598633
28 1 0.0378357 0.683735 0.577283
29 3 0.0456137 0.602788 0.594173
30 4 0.0168752 0.680995 0.536818
31 1 0.136738 0.59848 0.608847
32 3 0.140847 0.628039 0.676323
33 4 0.186207 0.598238 0.586536
34 1 0.161419 0.554094 0.7149
35 3 0.245188 0.588156 0.719497
36 4 0.17396 0.505031 0.724271
37 1 0.230624 0.636312 0.780241
38 3 0.320102 0.633781 0.789762
39 4 0.21509 0.64726 0.824808
40 1 0.336841 0.552104 0.780964
41 3 0.405401 0.551108 0.730425
42 4 0.334842 0.500467 0.790387
43 1 0.358968 0.575469 0.67097
44 3 0.420308 0.634004 0.657779
45 4 0.320692 0.576379 0.637156
46 1 0.387725 0.700203 0.695779
47 3 0.466671 0.72027 0.723528
48 4 0.34921 0.732252 0.714464
49 1 0.478617 0.655501 0.771321
50 3 0.56035 0.640191 0.74944
51 4 0.461915 0.624574 0.806849
52 1 0.543536 0.582469 0.693675
53 3 0.60197 0.615956 0.647703
54 4 0.516175 0.542483 0.674375
55 1 0.554191 0.679572 0.619269
56 3 0.618987 0.734861 0.621369
57 4 0.509674 0.705994 0.598354
58 1 0.616287 0.753802 0.69625
59 3 0.704368 0.743233 0.709695
60 4 0.591623 0.772535 0.736379
61 1 0.704851 0.658039 0.719866
62 3 0.77832 0.652042 0.678651
63 4 0.693015 0.611779 0.735955
64 1 0.737884 0.646554 0.610121
65 3 0.784046 0.704711 0.571291
66 4 0.697439 0.631057 0.579869
67 1 0.753795 0.774593 0.60715
68 3 0.829438 0.814126 0.629644
69 4 0.712933 0.809484 0.614771
70 1 0.844984 0.77266 0.691462
71 3 0.928974 0.745773 0.692803
72 4 0.828481 0.774103 0.734796
73 1 0.920851 0.663444 0.677106
74 3 0.93366 0.608311 0.72924
75 4 0.96846 0.679338 0.659393
76 1 0.926223 0.658368 0.790038
77 3 0.853172 0.620314 0.809404
78 5 0.955762 0.654482 0.833123
79 1 0.881352 0.557572 0.850888
80 3 0.894173 0.495315 0.802996
81 4 0.832698 0.578572 0.873931
82 1 0.803787 0.464244 0.807522
83 3 0.824914 0.405314 0.858097
84 4 0.838736 0.457044 0.77333
85 1 0.740082 0.382658 0.874912
86 3 0.751179 0.302501 0.883377
87 4 0.684188 0.385891 0.886258
88 1 0.766529 0.274962 0.811906
89 3 0.829231 0.303088 0.766447
90 4 0.719523 0.256221 0.793019
91 1 0.874943 0.23071 0.753235
92 3 0.877482 0.225911 0.679574
93 4 0.906061 0.19233 0.769696
94 1 0.789441 0.210146 0.66301
95 3 0.741395 0.263061 0.622306
96 4 0.743566 0.178051 0.666622
97 1 0.773284 0.336142 0.654929
98 3 0.85359 0.373041 0.645938
99 4 0.756011 0.366476 0.690318
100 1 0.846731 0.378092 0.567222
101 3 0.896349 0.341333 0.516641
102 5 0.789527 0.382656 0.555372
103 1 0.863044 0.261101 0.520774
104 3 0.804418 0.271219 0.467135
105 4 0.84646 0.215832 0.538779
106 1 0.855014 0.254782 0.406182
107 3 0.808652 0.187578 0.389102
108 4 0.899759 0.240416 0.378037
109 1 0.727045 0.221534 0.368472
110 3 0.740438 0.222167 0.299252
111 4 0.680725 0.252007 0.371019
112 1 0.756965 0.14253 0.280374
113 3 0.714635 0.151628 0.217481
114 4 0.768686 0.0937837 0.292852
115 1 0.626345 0.161955 0.239624
116 3 0.60743 0.118796 0.181336
117 4 0.629453 0.203894 0.213021
118 1 0.604933 0.0414799 0.209926
119 3 0.555948 0.0188685 0.154803
120 4 0.608146 0.00123869 0.241466
121 1 0.47352 0.0497842 0.172501
122 3 0.431599 0.0896604 0.119245
123 4 0.427563 0.0419198 0.198794
124 1 0.487912 0.155971 0.108557
125 3 0.420961 0.208566 0.0916798
126 4 0.489577 0.135069 0.0652462
127 1 0.385806 0.218395 0.163656
128 3 0.378565 0.300376 0.156873
129 4 0.368137 0.207892 0.206673
130 1 0.469727 0.321323 0.151166
131 3 0.51054 0.287816 0.0923083
132 4 0.508639 0.331706 0.187084
133 1 0.540623 0.360023 0.0598015
134 3 0.619724 0.342103 0.092561
135 4 0.54932 0.410053 0.0486548
136 1 0.653017 0.285086 0.0426891
137 3 0.707581 0.340345 0.0170035
138 4 0.653515 0.248359 0.00945473
139 1 0.775791 0.336349 0.0703572
140 3 0.82103 0.26716 0.073811
141 4 0.765048 0.37452 0.101639
142 1 0.904736 0.293678 0.0979796
143 3 0.881202 0.303998 0.167819
144 4 0.949131 0.319405 0.0844922
145 1 0.935379 0.241684 0.197119
146 3 0.989229 0.304903 0.219741
147 4 0.972847 0.201692 0.200897
148 1 0.930808 0.332429 0.276347
149 3 0.908861 0.410373 0.288069
150 5 0.967472 0.291247 0.275046
151 1 0.847269 0.418752 0.229232
152 3 0.78259 0.455229 0.261878
153 4 0.825462 0.411066 0.186394
154 1 0.746277 0.394017 0.304996
155 3 0.779896 0.347694 0.358038
156 4 0.698227 0.370122 0.291628
157 1 0.752901 0.382185 0.419452
158 3 0.664172 0.388134 0.433952
159 4 0.786122 0.415959 0.441402
160 1 0.662317 0.343869 0.498569
161 3 0.70207 0.356941 0.565217
162 4 0.649534 0.289779 0.497004
163 1 0.626065 0.376584 0.605534
164 3 0.545843 0.34159 0.607634
165 4 0.623801 0.429041 0.605542
166 1 0.535466 0.327512 0.683552
167 3 0.510746 0.380329 0.733045
168 4 0.554995 0.298987 0.721331
169 1 0.425717 0.402969 0.70915
170 3 0.383339 0.337445 0.735969
171 4 0.392576 0.423517 0.678542
172 1 0.381019 0.357916 0.809781
173 3 0.29904 0.381384 0.827643
174 4 0.405346 0.379764 0.845927
175 1 0.252877 0.304782 0.82324
176 3 0.267127 0.280985 0.891529
177 4 0.236277 0.262529 0.800012
178 1 0.21539 0.335366 0.928289
179 3 0.154678 0.280945 0.93985
180 4 0.184593 0.376694 0.939735
181 1 0.195439 0.232708 0.992201
182 3 0.169281 0.168622 0.955646
183 5 0.233431 0.243652 0.957785
184 1 0.246939 0.145936 0.921198
185 3 0.321619 0.129813 0.9565
186 4 0.260896 0.159771 0.880176
187 1 0.325564 0.0431992 0.950178
188 3 0.39675 0.0113607 0.92417
189 4 0.298701 -0.00330885 0.961832
190 1 0.401498 0.052958 0.856906
191 3 0.398838 0.136993 0.847935
192 4 0.386376 0.0177367 0.825234
193 1 0.441165 0.142014 0.781882
194 3 0.38326 0.19217 0.75023
195 4 0.482685 0.136008 0.751331
196 1 0.314078 0.13867 0.736448
197 3 0.346264 0.109268 0.673831
198 5 0.357457 0.156416 0.710936
199 1 0.2981 0.158555 0.626235
200 3 0.305863 0.212537 0.571608
201 4 0.249751 0.13641 0.610598
202 1 0.311801 0.28704 0.612667
203 3 0.402796 0.28898 0.622629
204 4 0.286103 0.317692 0.640522
205 1 0.42472 0.333751 0.559005
206 3 0.387609 0.389002 0.512075
207 4 0.451389 0.294778 0.536749
208 1 0.467253 0.432833 0.497422
209 3 0.555466 0.431681 0.487244
210 4 0.468784 0.479186 0.514526
211 1 0.557432 0.411158 0.413036
212 3 0.551012 0.481834 0.379243
213 4 0.547369 0.379515 0.378459
214 1 0.640639 0.510495 0.381026
215 3 0.688015 0.471117 0.333021
216 4 0.679991 0.53373 0.40744
217 1 0.688476 0.527306 0.273021
218 3 0.739412 0.588535 0.298246
219 5 0.746486 0.536471 0.28104
220 1 0.790207 0.605974 0.237165
221 3 0.801121 0.683015 0.2211
222 4 0.834926 0.586112 0.213944
223 1 0.715051 0.705114 0.196067
224 3 0.691761 0.726568 0.262917
225 4 0.672701 0.695869 0.164169
226 1 0.678186 0.809291 0.253383
227 3 0.590522 0.806812 0.244366
228 4 0.688315 0.855653 0.238225
229 1 0.563729 0.780641 0.314237
230 3 0.504136 0.732046 0.281165
231 4 0.52915 0.818917 0.30797
232 1 0.556869 0.660479 0.270763
233 3 0.579309 0.608363 0.322738
234 4 0.590332 0.642717 0.238215
235 1 0.500608 0.588454 0.35429
236 3 0.422056 0.57284 0.32211
237 4 0.495509 0.617036 0.393277
238 1 0.402532 0.497647 0.351969
239 3 0.405098 0.461194 0.415836
240 4 0.415554 0.458931 0.320809
241 1 0.314558 0.448839 0.426966
242 3 0.266984 0.390891 0.390049
243 4 0.273337 0.481607 0.44312
244 1 0.273261 0.324781 0.435998
245 3 0.274447 0.309095 0.507801
246 4 0.305801 0.287895 0.417954
247 1 0.188481 0.28281 0.521014
248 3 0.168286 0.206137 0.54128
249 5 0.240583 0.28618 0.500432
250 1 0.171326 0.162723 0.476096
251 3 0.21529 0.0903264 0.478699
252 4 0.137496 0.155664 0.437084
253 1 0.30297 0.119493 0.469253
254 3 0.334719 0.0884963 0.408121
255 4 0.290593 0.0714203 0.485252
256 1 0.356976 0.161365 0.370842
257 3 0.332771 0.14043 0.301489
258 4 0.405067 0.138481 0.367728
259 1 0.244904 0.121756 0.311361
260 3 0.206746 0.161831 0.254013
261 4 0.200978 0.0974348 0.334396
262 1 0.197529 0.238146 0.282379
263 3 0.246001 0.283668 0.331923
264 4 0.141328 0.245662 0.288549
265 1 0.259336 0.353681 0.292401
266 3 0.212363 0.405947 0.250816
267 4 0.314373 0.355208 0.274271
268 1 0.219449 0.48004 0.291491
269 3 0.287012 0.522729 0.324472
270 4 0.180382 0.492187 0.325045
271 1 0.305992 0.5792 0.270571
272 3 0.251476 0.635287 0.299416
273 4 0.318253 0.597722 0.228925
274 1 0.302508 0.658462 0.359601
275 3 0.335876 0.72387 0.328239
276 4 0.336517 0.648395 0.39355
277 1 0.270929 0.784126 0.3451
278 3 0.236176 0.813308 0.407018
279 4 0.224539 0.799566 0.320815
280 1 0.312682 0.849254 0.436183
281 3 0.285765 0.922191 0.46157
282 4 0.367995 0.846876 0.449812
283 1 0.262479 0.959165 0.395937
284 3 0.18694 0.993539 0.417508
285 4 0.269685 0.979533 0.356209
286 1 0.134093 0.923695 0.418707
287 3 0.0791893 0.900951 0.363811
288 4 0.101697 0.916981 0.379349
