LAMMPS protain data file

         168  atoms
         222  bonds
           0  angles
           0  dihedrals
           0  impropers

           5  atom types
           5  bond types
           0  angle types
           0  dihedral types
           0  improper types

-200.0	200.0	xlo xhi
-200.0	200.0	ylo yhi
-200.0	200.0	zlo zhi

Masses

           1	27.0
           2	14.0
           3	28.0
           4	60.0
           5	60.0

Atoms

           1	1	1	1	0.0	-12.20400047	-2.84500003	5.70300007
           2	1	1	3	0.0	-10.45199966	-1.24199998	5.38000011
           3	1	1	4	0.0	-12.29300022	-3.78699994	4.5
           4	1	2	1	0.0	-8.56400013	-2.52699995	6.82499981
           5	1	2	3	0.0	-7.57399988	-4.24399996	5.48000002
           6	1	2	4	0.0	-8.08399963	-3.04099989	8.18700027
           7	1	3	1	0.0	-5.89499998	-2.61400008	4.07600021
           8	1	3	3	0.0	-4.28399992	-1.41199994	5.36299992
           9	1	3	4	0.0	-6.09600019	-1.81099999	2.79099989
          10	1	4	1	0.0	-2.16799998	-3.03999996	4.86399984
          11	1	4	3	0.0	-1.26600003	-3.34899998	2.66799998
          12	1	4	4	0.0	-1.77900004	-4.32999992	5.57999992
          13	1	5	1	0.0	0.76899999	-1.53100002	2.91199994
          14	1	5	3	0.0	2.55299997	-1.40600002	4.51000023
          15	1	5	4	0.0	0.64899999	-0.033	2.56699991
          16	1	6	1	0.0	4.3579998	-2.86599994	3.07599998
          17	1	6	3	0.0	5.21000004	-2.05699992	0.991
          18	1	6	4	0.0	4.63100004	-4.35599995	2.85400009
          19	1	7	1	0.0	7.09200001	-0.39300001	2.01399994
          20	1	7	3	0.0	9.18000031	-1.07700002	2.97399998
          21	1	7	4	0.0	7.15700006	0.98000002	2.68700004
          22	1	8	1	0.0	10.34200001	-1.921	0.64700001
          23	1	8	3	0.0	11.71399975	-1.22500002	-1.19099998
          24	1	8	4	0.0	10.27499962	-3.24600005	-0.13500001
          25	1	9	1	0.0	12.18200016	1.28100002	-0.36899999
          26	1	9	3	0.0	14.02299976	0.077	0.56999999
          27	1	9	5	0.0	11.35099983	2.38850158	-1.10580845
          28	1	10	1	0.0	15.95800018	1.11500001	-0.95200002
          29	1	10	3	0.0	17.22999954	0.87199998	1.06799996
          30	1	10	4	0.0	16.77499962	1.86699998	-2.00500011
          31	1	11	1	0.0	16.42700005	3.23799992	2.19199991
          32	1	11	3	0.0	15.30099964	3.4460001	4.29500008
          33	1	11	4	0.0	17.06100082	4.62099981	1.99899995
          34	1	12	1	0.0	12.78499985	3.55800009	3.30900002
          35	1	12	3	0.0	11.76000023	1.53499997	2.54500008
          36	1	12	4	0.0	11.79500008	4.47200012	2.58400011
          37	1	13	1	0.0	11.42800045	0.405	4.99599981
          38	1	13	3	0.0	10.71899986	1.10099995	7.16699982
          39	1	13	4	0.0	12.50599957	-0.56999999	5.46199989
          40	1	14	1	0.0	8.19400024	0.30899999	6.97900009
          41	1	14	3	0.0	6.7249999	-0.77499998	5.42799997
          42	1	14	5	0.0	9.20499992	0.78726066	7.83594266
          43	1	15	1	0.0	4.51900005	-0.65600002	6.99399996
          44	1	15	3	0.0	3.74900007	0.90399998	8.63700008
          45	1	15	4	0.0	4.37699986	-2.102	7.47599983
          46	1	16	1	0.0	1.21800005	1.08899999	7.74599981
          47	1	16	3	0.0	-0.237	-0.35499999	6.51999998
          48	1	16	4	0.0	1.34500003	2.5150001	7.20499992
          49	1	17	1	0.0	-2.55699992	0.428	7.69399977
          50	1	17	3	0.0	-3.26900005	2.6960001	7.98999977
          51	1	17	4	0.0	-3.02999997	-0.47299999	8.84500027
          52	1	18	1	0.0	-5.63700008	2.46000004	6.72700024
          53	1	18	3	0.0	-7.15600014	0.685	6.1960001
          54	1	18	4	0.0	-5.25099993	3.30500007	5.50099993
          55	1	19	1	0.0	-9.44699955	2.11599994	6.49900007
          56	1	19	3	0.0	-9.80599976	3.76600003	4.79699993
          57	1	19	4	0.0	-10.34899998	2.64199996	7.6420002
          58	1	20	1	0.0	-11.12199974	2.17700005	3.06200004
          59	1	20	3	0.0	-12.42599964	0.162	3.03699994
          60	1	20	4	0.0	-10.03800011	1.96099997	1.98599994
          61	1	21	1	0.0	-14.61100006	1.19400001	1.86099994
          62	1	21	3	0.0	-14.98099995	-0.95999998	0.884
          63	1	21	4	0.0	-15.62800026	2.13599992	1.20899999
          64	1	22	1	0.0	-12.90100002	-0.93800002	-0.81099999
          65	1	22	3	0.0	-10.7489996	0.121	-0.85600001
          66	1	22	4	0.0	-13.80300045	-0.86400002	-2.04399991
          67	1	23	1	0.0	-9.52999973	-1.68499994	-2.44899988
          68	1	23	3	0.0	-8.27499962	0.086	-3.46799994
          69	1	23	4	0.0	-9.16899967	-3.00500011	-3.14499998
          70	1	24	1	0.0	-10.16800022	0.93800002	-5.15899992
          71	1	24	3	0.0	-8.93400002	2.96700001	-4.85599995
          72	1	24	4	0.0	-11.48400021	1.15600002	-5.90799999
          73	1	25	1	0.0	-9.98200035	3.68799996	-2.49600005
          74	1	25	3	0.0	-7.80100012	4.4380002	-1.85300004
          75	1	25	4	0.0	-10.95600033	3.94199991	-1.33299994
          76	1	26	1	0.0	-6.8579998	2.06999993	-1.00100005
          77	1	26	3	0.0	-4.80200005	3.03999996	-1.74100006
          78	1	26	4	0.0	-6.71099997	0.58999997	-0.63700002
          79	1	27	1	0.0	-5.08699989	2.50099993	-4.33599997
          80	1	27	3	0.0	-3.70499992	4.454	-4.2670002
          81	1	27	4	0.0	-5.64900017	2.10800004	-5.70599985
          82	1	28	1	0.0	-5.65899992	6.30100012	-4.24499989
          83	1	28	3	0.0	-4.10099983	7.60400009	-2.9690001
          84	1	28	4	0.0	-7.01599979	7.0170002	-4.33799982
          85	1	29	1	0.0	-4.7670002	6.68400002	-0.53799999
          86	1	29	3	0.0	-2.41899991	7.05100012	-0.215
          87	1	29	4	0.0	-5.58900023	6.07600021	0.61299998
          88	1	30	1	0.0	-1.61300004	4.5170002	-0.514
          89	1	30	3	0.0	0.37599999	5.51100016	-1.40900004
          90	1	30	4	0.0	-1.55700004	2.99399996	-0.65499997
          91	1	31	1	0.0	-0.52499998	5.83199978	-3.92000008
          92	1	31	3	0.0	0.991	7.67999983	-3.74799991
          93	1	31	4	0.0	-1.40199995	5.79199982	-5.17000008
          94	1	32	1	0.0	-0.74900001	9.43900013	-2.68499994
          95	1	32	3	0.0	1.19099998	10.1590004	-1.46399999
          96	1	32	4	0.0	-2.0480001	10.13799953	-2.27699995
          97	1	33	1	0.0	0.87300003	8.48700047	0.64600003
          98	1	33	3	0.0	3.26099992	8.70199966	0.57700002
          99	1	33	4	0.0	0.34200001	7.40999985	1.59599996
         100	1	34	1	0.0	3.71000004	6.71099997	-1.18200004
         101	1	34	3	0.0	5.52600002	8.14999962	-1.80799997
         102	1	34	4	0.0	3.53900003	5.52600002	-2.13800001
         103	1	35	1	0.0	4.09600019	9.76500034	-3.43799996
         104	1	35	3	0.0	5.70200014	11.35400009	-2.6170001
         105	1	35	4	0.0	2.95300007	10.36400032	-4.28900003
         106	1	36	1	0.0	4.33500004	12.08100033	-0.40400001
         107	1	36	3	0.0	6.42999983	12.4289999	0.704
         108	1	36	4	0.0	3.26999998	12.2159996	0.68599999
         109	1	37	1	0.0	7.18300009	9.83500004	0.83200002
         110	1	37	3	0.0	9.31299973	9.14299965	-0.023
         111	1	37	4	0.0	6.91200018	8.49699974	1.523
         112	1	38	1	0.0	8.92700005	9.9289999	-2.57299995
         113	1	38	3	0.0	10.25699997	8.04500008	-3.20700002
         114	1	38	5	0.0	7.93599987	10.08368123	-3.24610917
         115	1	39	1	0.0	8.27000046	6.19199991	-3.18799996
         116	1	39	3	0.0	6.40799999	6.07499981	-4.69899988
         117	1	39	4	0.0	7.6079998	5.35400009	-2.08500004
         118	1	40	1	0.0	7.79500008	4.96400023	-6.77699995
         119	1	40	3	0.0	9.45600033	3.25699997	-6.86800003
         120	1	40	4	0.0	8.29399967	5.92999983	-7.85200024
         121	1	41	1	0.0	7.96500015	1.33000004	-7.8920002
         122	1	41	3	0.0	5.91699982	1.05599999	-9.09300041
         123	1	41	5	0.0	7.47800016	0.45148339	-7.28002836
         124	1	42	1	0.0	5.86499977	-1.63399994	-9.00599957
         125	1	42	3	0.0	5.13800001	-2.2750001	-6.81699991
         126	1	42	4	0.0	6.48400021	-2.9460001	-9.47500038
         127	1	43	1	0.0	2.50399995	-1.84300005	-7.21899986
         128	1	43	3	0.0	1.49600005	-3.61100006	-8.48400021
         129	1	43	4	0.0	1.44299996	-0.76099998	-7.40700006
         130	1	44	1	0.0	1.01300001	-5.25699997	-6.36299992
         131	1	44	3	0.0	0.068	-4.67000008	-4.24800014
         132	1	44	4	0.0	2.05100012	-6.35099983	-6.09700012
         133	1	45	1	0.0	-2.23399997	-6.07600021	-4.49499989
         134	1	45	3	0.0	-2.89199996	-8.25	-5.26599979
         135	1	45	4	0.0	-3.41100001	-5.21600008	-4.97599983
         136	1	46	1	0.0	-3.35500002	-9.31700039	-2.79399991
         137	1	46	3	0.0	-4.98799992	-8.80500031	-1.11399996
         138	1	46	4	0.0	-2.42499995	-9.95699978	-1.76300001
         139	1	47	1	0.0	-7.15199995	-9.63700008	-2.49499989
         140	1	47	3	0.0	-8.12100029	-10.35900021	-0.426
         141	1	47	4	0.0	-8.09700012	-10.03499985	-3.63100004
         142	1	48	1	0.0	-6.76599979	-12.66899967	-0.199
         143	1	48	3	0.0	-6.96799994	-12.18700027	2.1400001
         144	1	48	4	0.0	-5.90700006	-13.90799999	-0.49000001
         145	1	49	1	0.0	-4.72300005	-10.68299961	2.38100004
         146	1	49	3	0.0	-4.70800018	-8.48400021	3.3210001
         147	1	49	4	0.0	-3.20499992	-10.8760004	2.48600006
         148	1	50	1	0.0	-5.99300003	-7.21899986	1.34099996
         149	1	50	3	0.0	-4.76800013	-5.47200012	2.40700006
         150	1	50	4	0.0	-7.02899981	-6.90199995	2.41400003
         151	1	51	1	0.0	-2.33100009	-6.14099979	1.44099998
         152	1	51	3	0.0	-1.56099999	-6.27899981	-0.82200003
         153	1	51	4	0.0	-1.352	-7.14300013	2.05800009
         154	1	52	1	0.0	-0.73699999	-3.70600009	-1.01199996
         155	1	52	3	0.0	1.23699999	-3.44799995	0.29699999
         156	1	52	4	0.0	-1.19200003	-2.24499989	-1.13600004
         157	1	53	1	0.0	3.03299999	-4.10300016	-1.59599996
         158	1	53	3	0.0	3.32500005	-3.45499992	-3.87599993
         159	1	53	4	0.0	3.5250001	-5.55600023	-1.62699997
         160	1	54	1	0.0	5.3130002	-1.64699996	-3.42400002
         161	1	54	3	0.0	7.37200022	-1.82500005	-2.21700001
         162	1	54	4	0.0	4.97800016	-0.163	-3.18400002
         163	1	55	1	0.0	8.95100021	-2.45700002	-4.33799982
         164	1	55	3	0.0	9.38899994	-1.35699999	-6.42399979
         165	1	55	4	0.0	9.19299984	-3.89400005	-4.81099987
         166	1	56	1	0.0	11.48600006	0.13	-5.57999992
         167	1	56	3	0.0	12.37300014	-0.98799998	-7.46700001
         168	1	56	4	0.0	12.125	1.20700002	-4.67000008

Bond Coeffs

           1	200.0	3.77
           2	200.0	2.41
           3	200.0	2.50
           4	200.0	1.54
           5	200.0	1.54
Bonds

           1	2	1	2
           2	4	1	3
           3	1	1	4
           4	3	2	4
           5	2	4	5
           6	4	4	6
           7	1	4	7
           8	3	5	7
           9	2	7	8
          10	4	7	9
          11	1	7	10
          12	3	8	10
          13	2	10	11
          14	4	10	12
          15	1	10	13
          16	3	11	13
          17	2	13	14
          18	4	13	15
          19	1	13	16
          20	3	14	16
          21	2	16	17
          22	4	16	18
          23	1	16	19
          24	3	17	19
          25	2	19	20
          26	4	19	21
          27	1	19	22
          28	3	20	22
          29	2	22	23
          30	4	22	24
          31	1	22	25
          32	3	23	25
          33	2	25	26
          34	5	25	27
          35	1	25	28
          36	3	26	28
          37	2	28	29
          38	4	28	30
          39	1	28	31
          40	3	29	31
          41	2	31	32
          42	4	31	33
          43	1	31	34
          44	3	32	34
          45	2	34	35
          46	4	34	36
          47	1	34	37
          48	3	35	37
          49	2	37	38
          50	4	37	39
          51	1	37	40
          52	3	38	40
          53	2	40	41
          54	5	40	42
          55	1	40	43
          56	3	41	43
          57	2	43	44
          58	4	43	45
          59	1	43	46
          60	3	44	46
          61	2	46	47
          62	4	46	48
          63	1	46	49
          64	3	47	49
          65	2	49	50
          66	4	49	51
          67	1	49	52
          68	3	50	52
          69	2	52	53
          70	4	52	54
          71	1	52	55
          72	3	53	55
          73	2	55	56
          74	4	55	57
          75	1	55	58
          76	3	56	58
          77	2	58	59
          78	4	58	60
          79	1	58	61
          80	3	59	61
          81	2	61	62
          82	4	61	63
          83	1	61	64
          84	3	62	64
          85	2	64	65
          86	4	64	66
          87	1	64	67
          88	3	65	67
          89	2	67	68
          90	4	67	69
          91	1	67	70
          92	3	68	70
          93	2	70	71
          94	4	70	72
          95	1	70	73
          96	3	71	73
          97	2	73	74
          98	4	73	75
          99	1	73	76
         100	3	74	76
         101	2	76	77
         102	4	76	78
         103	1	76	79
         104	3	77	79
         105	2	79	80
         106	4	79	81
         107	1	79	82
         108	3	80	82
         109	2	82	83
         110	4	82	84
         111	1	82	85
         112	3	83	85
         113	2	85	86
         114	4	85	87
         115	1	85	88
         116	3	86	88
         117	2	88	89
         118	4	88	90
         119	1	88	91
         120	3	89	91
         121	2	91	92
         122	4	91	93
         123	1	91	94
         124	3	92	94
         125	2	94	95
         126	4	94	96
         127	1	94	97
         128	3	95	97
         129	2	97	98
         130	4	97	99
         131	1	97	100
         132	3	98	100
         133	2	100	101
         134	4	100	102
         135	1	100	103
         136	3	101	103
         137	2	103	104
         138	4	103	105
         139	1	103	106
         140	3	104	106
         141	2	106	107
         142	4	106	108
         143	1	106	109
         144	3	107	109
         145	2	109	110
         146	4	109	111
         147	1	109	112
         148	3	110	112
         149	2	112	113
         150	5	112	114
         151	1	112	115
         152	3	113	115
         153	2	115	116
         154	4	115	117
         155	1	115	118
         156	3	116	118
         157	2	118	119
         158	4	118	120
         159	1	118	121
         160	3	119	121
         161	2	121	122
         162	5	121	123
         163	1	121	124
         164	3	122	124
         165	2	124	125
         166	4	124	126
         167	1	124	127
         168	3	125	127
         169	2	127	128
         170	4	127	129
         171	1	127	130
         172	3	128	130
         173	2	130	131
         174	4	130	132
         175	1	130	133
         176	3	131	133
         177	2	133	134
         178	4	133	135
         179	1	133	136
         180	3	134	136
         181	2	136	137
         182	4	136	138
         183	1	136	139
         184	3	137	139
         185	2	139	140
         186	4	139	141
         187	1	139	142
         188	3	140	142
         189	2	142	143
         190	4	142	144
         191	1	142	145
         192	3	143	145
         193	2	145	146
         194	4	145	147
         195	1	145	148
         196	3	146	148
         197	2	148	149
         198	4	148	150
         199	1	148	151
         200	3	149	151
         201	2	151	152
         202	4	151	153
         203	1	151	154
         204	3	152	154
         205	2	154	155
         206	4	154	156
         207	1	154	157
         208	3	155	157
         209	2	157	158
         210	4	157	159
         211	1	157	160
         212	3	158	160
         213	2	160	161
         214	4	160	162
         215	1	160	163
         216	3	161	163
         217	2	163	164
         218	4	163	165
         219	1	163	166
         220	3	164	166
         221	2	166	167
         222	4	166	168

