ITEM: TIMESTEP
0
ITEM: NUMBER OF ATOMS
168
ITEM: BOX BOUNDS ss ss ss
-15.668 17.27
-13.948 12.469
-9.515 8.885
ITEM: ATOMS id type xs ys zs
1 1 0.105167 0.420298 0.827065
2 3 0.158358 0.480978 0.809511
3 4 0.102465 0.384639 0.761685
4 1 0.215678 0.432335 0.888043
5 3 0.245734 0.367339 0.814946
6 4 0.230251 0.412878 0.962065
7 1 0.296709 0.429042 0.738641
8 3 0.345619 0.474543 0.808587
9 4 0.290607 0.459439 0.668804
10 1 0.409861 0.412916 0.781467
11 3 0.437246 0.401219 0.66212
12 4 0.421671 0.364084 0.82038
13 1 0.499028 0.470038 0.67538
14 3 0.553191 0.47477 0.762228
15 4 0.495385 0.526744 0.65663
16 1 0.607991 0.419503 0.684293
17 3 0.633858 0.450127 0.570978
18 4 0.616279 0.3631 0.672228
19 1 0.690995 0.513117 0.626576
20 3 0.754387 0.487224 0.67875
21 4 0.692969 0.565091 0.663152
22 1 0.789665 0.455275 0.552283
23 3 0.831319 0.481622 0.452391
24 4 0.787631 0.405118 0.509783
25 1 0.845528 0.576485 0.497065
26 3 0.901421 0.530908 0.548098
27 5 0.820299 0.618409 0.457021
28 1 0.960168 0.570201 0.46538
29 3 0.998786 0.561002 0.575163
30 4 0.984972 0.598668 0.408152
31 1 0.974406 0.650566 0.63625
32 3 0.940221 0.65844 0.750543
33 4 0.993655 0.702919 0.625761
34 1 0.863835 0.662679 0.696957
35 3 0.832716 0.5861 0.655435
36 4 0.833779 0.697278 0.657554
37 1 0.822636 0.543324 0.788641
38 3 0.801111 0.569671 0.90663
39 4 0.855365 0.506416 0.813967
40 1 0.724452 0.53969 0.896413
41 3 0.679853 0.498656 0.81212
42 5 0.755146 0.557795 0.942986
43 1 0.612879 0.503161 0.897228
44 3 0.589502 0.562214 0.986522
45 4 0.608568 0.448423 0.923424
46 1 0.51266 0.569217 0.938098
47 3 0.468486 0.514555 0.871467
48 4 0.516516 0.623197 0.908696
49 1 0.398051 0.544195 0.935272
50 3 0.376435 0.630049 0.951359
51 4 0.383691 0.510088 0.997826
52 1 0.304542 0.621115 0.882717
53 3 0.258425 0.553924 0.853859
54 4 0.316261 0.653102 0.816087
55 1 0.18887 0.608093 0.870326
56 3 0.177971 0.670553 0.777826
57 4 0.161485 0.628005 0.932446
58 1 0.138017 0.610402 0.683533
59 3 0.0984274 0.534126 0.682174
60 4 0.170927 0.602226 0.625054
61 1 0.0320906 0.573192 0.618261
62 3 0.0208574 0.491653 0.565163
63 4 0.0012144 0.60885 0.582826
64 1 0.0840063 0.492486 0.473043
65 3 0.149341 0.532574 0.470598
66 4 0.0566215 0.495287 0.406033
67 1 0.18635 0.464209 0.384022
68 3 0.224452 0.531249 0.328641
69 4 0.19731 0.414241 0.346196
70 1 0.16698 0.563501 0.236739
71 3 0.204445 0.640307 0.253207
72 4 0.127027 0.571753 0.196033
73 1 0.172627 0.6676 0.381467
74 3 0.238843 0.695991 0.416413
75 4 0.143057 0.677215 0.444674
76 1 0.267472 0.606352 0.462717
77 3 0.329893 0.643071 0.4225
78 4 0.271935 0.550327 0.4825
79 1 0.32124 0.622667 0.281467
80 3 0.363198 0.696597 0.285217
81 4 0.304178 0.60779 0.207011
82 1 0.303874 0.766514 0.286413
83 3 0.351175 0.815838 0.355761
84 4 0.262675 0.793618 0.281359
85 1 0.330955 0.781012 0.48788
86 3 0.402241 0.794905 0.505435
87 4 0.305999 0.757997 0.550435
88 1 0.426711 0.698982 0.489185
89 3 0.487097 0.736609 0.440543
90 4 0.428411 0.641329 0.481522
91 1 0.459743 0.74876 0.304076
92 3 0.505768 0.818715 0.313424
93 4 0.433117 0.747246 0.236141
94 1 0.452942 0.885301 0.371196
95 3 0.51184 0.912556 0.437554
96 4 0.413504 0.911761 0.39337
97 1 0.502186 0.849264 0.552228
98 3 0.574686 0.857402 0.548478
99 4 0.486065 0.808495 0.603859
100 1 0.588317 0.782034 0.45288
101 3 0.643451 0.836507 0.418859
102 4 0.583126 0.737177 0.400924
103 1 0.600036 0.897642 0.330272
104 3 0.648795 0.957792 0.374891
105 4 0.565335 0.920316 0.284022
106 1 0.607293 0.985313 0.495163
107 3 0.670897 0.998486 0.55538
108 4 0.574959 0.990423 0.554402
109 1 0.693758 0.900291 0.562337
110 3 0.758425 0.874096 0.51587
111 4 0.68553 0.849642 0.599891
112 1 0.746706 0.90385 0.377283
113 3 0.787085 0.832532 0.342826
114 5 0.716619 0.909705 0.340701
115 1 0.726759 0.762388 0.343859
116 3 0.670229 0.757959 0.261739
117 4 0.706661 0.730666 0.403804
118 1 0.712338 0.715903 0.148804
119 3 0.762766 0.651285 0.143859
120 4 0.727488 0.75247 0.0903804
121 1 0.7175 0.57834 0.0882065
122 3 0.655322 0.567968 0.0229348
123 5 0.702714 0.545084 0.121466
124 1 0.653743 0.466139 0.0276631
125 3 0.631672 0.441875 0.14663
126 4 0.672536 0.416474 0.00217391
127 1 0.551703 0.458228 0.124783
128 3 0.5211 0.391301 0.0560326
129 4 0.519491 0.499186 0.114565
130 1 0.506436 0.328993 0.171304
131 3 0.477746 0.351213 0.28625
132 4 0.53795 0.28758 0.185761
133 1 0.407857 0.29799 0.272826
134 3 0.38788 0.215694 0.230924
135 4 0.372123 0.330545 0.246685
136 1 0.373824 0.175304 0.365272
137 3 0.324246 0.194685 0.456576
138 4 0.402058 0.151077 0.421304
139 1 0.258546 0.16319 0.381522
140 3 0.229127 0.135859 0.493967
141 4 0.229856 0.148124 0.319783
142 1 0.270265 0.0484158 0.506304
143 3 0.264133 0.0666616 0.633424
144 4 0.296345 0.00151418 0.490489
145 1 0.332291 0.123595 0.646522
146 3 0.332746 0.206836 0.697609
147 4 0.378378 0.116289 0.652228
148 1 0.293734 0.254722 0.59
149 3 0.330925 0.320854 0.647935
150 4 0.262281 0.266722 0.648315
151 1 0.404912 0.295529 0.595435
152 3 0.42829 0.290305 0.472446
153 4 0.434635 0.257599 0.628967
154 1 0.453306 0.387705 0.46212
155 3 0.513237 0.397471 0.533261
156 4 0.439492 0.44301 0.45538
157 1 0.567764 0.372677 0.43038
158 3 0.576629 0.397206 0.306467
159 4 0.582701 0.317674 0.428696
160 1 0.636985 0.465647 0.331033
161 3 0.699496 0.458909 0.39663
162 4 0.626814 0.521823 0.344076
163 1 0.747435 0.434985 0.281359
164 3 0.760732 0.476625 0.167989
165 4 0.754782 0.380588 0.255652
166 1 0.824397 0.532914 0.213859
167 3 0.851327 0.490593 0.111304
168 4 0.843797 0.573684 0.263315
ITEM: TIMESTEP
1000
ITEM: NUMBER OF ATOMS
168
ITEM: BOX BOUNDS ss ss ss
-15.668 17.27
-13.948 12.469
-9.515 8.885
ITEM: ATOMS id type xs ys zs
1 1 0.108798 0.412068 0.848502
2 3 0.155183 0.484121 0.859721
3 4 0.101355 0.402502 0.771808
4 1 0.21932 0.438194 0.89816
5 3 0.247367 0.37492 0.81899
6 4 0.23405 0.418305 0.967417
7 1 0.299905 0.42825 0.75388
8 3 0.355889 0.478388 0.802423
9 4 0.290075 0.448526 0.680189
10 1 0.412524 0.416673 0.792121
11 3 0.437533 0.408795 0.672377
12 4 0.4229 0.372693 0.83944
13 1 0.500556 0.465959 0.681159
14 3 0.557447 0.47182 0.760761
15 4 0.494429 0.519169 0.654858
16 1 0.608283 0.421911 0.680271
17 3 0.631039 0.458749 0.567221
18 4 0.618158 0.365876 0.671942
19 1 0.690088 0.507547 0.615001
20 3 0.750054 0.476681 0.665606
21 4 0.689635 0.565295 0.635958
22 1 0.786762 0.453867 0.546285
23 3 0.805137 0.494726 0.430601
24 4 0.787327 0.400445 0.513572
25 1 0.847855 0.565387 0.482407
26 3 0.909382 0.531512 0.536379
27 5 0.864859 0.523325 0.523304
28 1 0.959016 0.574287 0.450286
29 3 1.01336 0.603286 0.527407
30 4 0.982459 0.581401 0.381719
31 1 0.973781 0.654051 0.615734
32 3 0.934099 0.67478 0.722086
33 4 0.991367 0.706273 0.591218
34 1 0.864102 0.665597 0.671163
35 3 0.839998 0.579309 0.649928
36 4 0.832902 0.694592 0.624086
37 1 0.823835 0.556772 0.777669
38 3 0.792466 0.599748 0.872342
39 4 0.856438 0.520432 0.804482
40 1 0.724171 0.556482 0.879721
41 3 0.677027 0.502521 0.817494
42 5 0.724785 0.500433 0.871989
43 1 0.615288 0.51176 0.889179
44 3 0.585167 0.568568 0.976501
45 4 0.611714 0.460124 0.924723
46 1 0.51437 0.577379 0.928857
47 3 0.461846 0.539644 0.848958
48 4 0.518803 0.630582 0.905604
49 1 0.402124 0.550653 0.930271
50 3 0.371546 0.629802 0.953465
51 4 0.390091 0.515402 0.999247
52 1 0.308242 0.627087 0.879326
53 3 0.25674 0.561011 0.857402
54 4 0.317671 0.659361 0.815004
55 1 0.193561 0.611114 0.875039
56 3 0.179722 0.670873 0.7733
57 4 0.166742 0.636284 0.932833
58 1 0.138345 0.610858 0.696463
59 3 0.0927794 0.542043 0.713093
60 4 0.171518 0.602475 0.634367
61 1 0.0353612 0.5681 0.627682
62 3 0.016935 0.498142 0.545707
63 4 0.00156889 0.607266 0.59845
64 1 0.0845722 0.482579 0.488971
65 3 0.149673 0.517906 0.482864
66 4 0.0563206 0.487903 0.415587
67 1 0.183117 0.457015 0.396785
68 3 0.218311 0.511954 0.312743
69 4 0.195366 0.405895 0.365246
70 1 0.161705 0.554128 0.248174
71 3 0.191543 0.639954 0.25305
72 4 0.12209 0.55987 0.207585
73 1 0.170836 0.662952 0.381588
74 3 0.231987 0.689991 0.443623
75 4 0.138574 0.676273 0.434569
76 1 0.263717 0.603745 0.462301
77 3 0.33264 0.621191 0.413877
78 4 0.269857 0.550413 0.484045
79 1 0.31487 0.620446 0.279706
80 3 0.35303 0.693641 0.244401
81 4 0.298146 0.60138 0.208918
82 1 0.300694 0.759639 0.285478
83 3 0.338955 0.821318 0.361116
84 4 0.258255 0.78461 0.274556
85 1 0.327303 0.778816 0.482805
86 3 0.395413 0.779253 0.535665
87 4 0.301407 0.758123 0.543199
88 1 0.42225 0.700473 0.477839
89 3 0.484559 0.736114 0.420681
90 4 0.424161 0.643379 0.466962
91 1 0.455556 0.746806 0.296971
92 3 0.491482 0.829691 0.281318
93 4 0.427471 0.739678 0.22784
94 1 0.445355 0.881536 0.360331
95 3 0.496938 0.92185 0.434747
96 4 0.405963 0.912613 0.379726
97 1 0.498393 0.85777 0.538625
98 3 0.572964 0.848725 0.537052
99 4 0.479771 0.815368 0.593104
100 1 0.582236 0.788111 0.440572
101 3 0.633978 0.828059 0.364171
102 4 0.578195 0.733449 0.403593
103 1 0.592417 0.900091 0.31664
104 3 0.636084 0.965774 0.358023
105 4 0.55886 0.918079 0.26507
106 1 0.603637 0.990266 0.475977
107 3 0.666654 0.997856 0.540356
108 4 0.567415 1.0006 0.529193
109 1 0.687647 0.909255 0.548343
110 3 0.754181 0.897075 0.499306
111 4 0.680098 0.858099 0.588609
112 1 0.741846 0.907126 0.362153
113 3 0.777991 0.828071 0.344646
114 5 0.781103 0.872765 0.360055
115 1 0.723065 0.763501 0.334988
116 3 0.667365 0.743706 0.246926
117 4 0.707448 0.733847 0.396472
118 1 0.710634 0.717079 0.146503
119 3 0.756136 0.651968 0.119806
120 4 0.722741 0.750731 0.0829708
121 1 0.712553 0.581525 0.0837674
122 3 0.645388 0.557709 0.0474821
123 5 0.748353 0.593084 0.0257435
124 1 0.650393 0.464655 0.0267585
125 3 0.629151 0.438267 0.147145
126 4 0.668215 0.416217 0.00186426
127 1 0.552806 0.454199 0.129651
128 3 0.529265 0.37277 0.0715626
129 4 0.519019 0.491011 0.121819
130 1 0.508879 0.323549 0.181778
131 3 0.47393 0.345271 0.29676
132 4 0.540858 0.283828 0.205612
133 1 0.411185 0.2915 0.28296
134 3 0.395092 0.204361 0.259897
135 4 0.375387 0.324376 0.266113
136 1 0.378486 0.174563 0.385937
137 3 0.324282 0.19771 0.464712
138 4 0.409205 0.155435 0.436622
139 1 0.266134 0.159047 0.404867
140 3 0.237057 0.12886 0.517274
141 4 0.241081 0.135558 0.344801
142 1 0.275775 0.0493455 0.539694
143 3 0.281167 0.0581663 0.668238
144 4 0.304361 0.00178677 0.522606
145 1 0.336047 0.13004 0.672585
146 3 0.312883 0.211455 0.720429
147 4 0.382118 0.124931 0.672131
148 1 0.295564 0.255534 0.604621
149 3 0.331012 0.330501 0.646053
150 4 0.260596 0.268951 0.655284
151 1 0.402067 0.308986 0.606654
152 3 0.426664 0.305929 0.489644
153 4 0.431048 0.268005 0.647641
154 1 0.456916 0.392003 0.474325
155 3 0.516921 0.40931 0.540029
156 4 0.439275 0.444901 0.462758
157 1 0.569479 0.383343 0.448845
158 3 0.577185 0.412894 0.323945
159 4 0.583211 0.327879 0.448118
160 1 0.640038 0.46169 0.336898
161 3 0.704563 0.456936 0.400914
162 4 0.6295 0.521179 0.340559
163 1 0.748751 0.441489 0.292822
164 3 0.759503 0.484263 0.176292
165 4 0.75641 0.384888 0.272617
166 1 0.824518 0.527023 0.19627
167 3 0.819997 0.591804 0.287782
168 4 0.84946 0.562851 0.247989
ITEM: TIMESTEP
2000
ITEM: NUMBER OF ATOMS
168
ITEM: BOX BOUNDS ss ss ss
-15.668 17.27
-13.948 12.469
-9.515 8.885
ITEM: ATOMS id type xs ys zs
1 1 0.111022 0.420522 0.859844
2 3 0.161153 0.48277 0.830854
3 4 0.104343 0.396499 0.785503
4 1 0.219899 0.44767 0.902794
5 3 0.246629 0.379134 0.824273
6 4 0.236176 0.440601 0.980013
7 1 0.302941 0.426476 0.766196
8 3 0.358343 0.473926 0.819305
9 4 0.296234 0.454484 0.695569
10 1 0.415253 0.414502 0.799934
11 3 0.437962 0.404084 0.678464
12 4 0.429249 0.372976 0.847751
13 1 0.501912 0.461522 0.682384
14 3 0.560775 0.4585 0.761896
15 4 0.495984 0.517961 0.659034
16 1 0.612393 0.416603 0.678752
17 3 0.63988 0.447883 0.567933
18 4 0.622334 0.363736 0.676789
19 1 0.691394 0.512031 0.606393
20 3 0.752266 0.490124 0.660842
21 4 0.689911 0.565394 0.636222
22 1 0.791453 0.45482 0.554169
23 3 0.81445 0.492614 0.439888
24 4 0.793109 0.402197 0.524997
25 1 0.848436 0.569967 0.495149
26 3 0.90755 0.524251 0.510128
27 5 0.871769 0.533853 0.446468
28 1 0.958469 0.576187 0.444933
29 3 1.00777 0.592752 0.545238
30 4 0.978226 0.592775 0.374137
31 1 0.972485 0.669432 0.596534
32 3 0.933161 0.694606 0.699765
33 4 0.992849 0.717587 0.565596
34 1 0.865076 0.666017 0.660409
35 3 0.845339 0.579495 0.644806
36 4 0.835126 0.69427 0.613183
37 1 0.823987 0.558527 0.771497
38 3 0.796333 0.602019 0.874289
39 4 0.857621 0.526157 0.800966
40 1 0.728009 0.557594 0.883779
41 3 0.67699 0.508258 0.814043
42 5 0.743428 0.610787 0.88825
43 1 0.616804 0.523799 0.89442
44 3 0.590837 0.593252 0.963993
45 4 0.616563 0.471682 0.929125
46 1 0.516457 0.583828 0.930274
47 3 0.466949 0.540793 0.864118
48 4 0.519857 0.639617 0.901939
49 1 0.404155 0.560401 0.934035
50 3 0.371879 0.64305 0.951418
51 4 0.39092 0.527778 0.999901
52 1 0.308246 0.629168 0.882576
53 3 0.259905 0.563003 0.866104
54 4 0.316051 0.663408 0.814478
55 1 0.193123 0.611525 0.880044
56 3 0.176942 0.666571 0.779287
57 4 0.16551 0.627138 0.941529
58 1 0.140078 0.60812 0.696007
59 3 0.0921976 0.538589 0.715396
60 4 0.171308 0.596893 0.645534
61 1 0.033904 0.564369 0.633758
62 3 0.0272348 0.48049 0.583291
63 4 0.000886653 0.598571 0.59315
64 1 0.0832942 0.486547 0.487692
65 3 0.145517 0.532953 0.450698
66 4 0.0539794 0.484648 0.426538
67 1 0.184186 0.460206 0.39804
68 3 0.218633 0.51872 0.324747
69 4 0.193563 0.40743 0.364595
70 1 0.163326 0.552963 0.248112
71 3 0.173437 0.645376 0.254274
72 4 0.122969 0.549591 0.206029
73 1 0.167995 0.657444 0.387886
74 3 0.228086 0.685445 0.456998
75 4 0.137656 0.667594 0.444577
76 1 0.264419 0.601609 0.46562
77 3 0.332322 0.614053 0.416756
78 4 0.271553 0.547651 0.492409
79 1 0.314812 0.615107 0.282734
80 3 0.356097 0.689489 0.267893
81 4 0.302379 0.586337 0.21737
82 1 0.29838 0.755234 0.28618
83 3 0.333124 0.818057 0.355788
84 4 0.25636 0.778802 0.271699
85 1 0.328663 0.77792 0.481014
86 3 0.399286 0.788121 0.511121
87 4 0.301361 0.756 0.54372
88 1 0.426123 0.701177 0.471544
89 3 0.482581 0.7306 0.41263
90 4 0.424766 0.642101 0.478055
91 1 0.452736 0.745654 0.287311
92 3 0.485048 0.825053 0.265743
93 4 0.425544 0.733257 0.221021
94 1 0.449771 0.878899 0.358278
95 3 0.503237 0.911307 0.436509
96 4 0.407602 0.904515 0.379021
97 1 0.49937 0.848566 0.53519
98 3 0.573296 0.844065 0.54129
99 4 0.482202 0.81073 0.59236
100 1 0.584128 0.787106 0.433975
101 3 0.637695 0.839536 0.388242
102 4 0.575581 0.73697 0.393102
103 1 0.591748 0.897706 0.313851
104 3 0.625509 0.973119 0.341044
105 4 0.560025 0.916075 0.25874
106 1 0.60023 0.987898 0.468168
107 3 0.66226 0.999613 0.540188
108 4 0.564294 0.998484 0.519958
109 1 0.685903 0.908124 0.538273
110 3 0.754342 0.898481 0.4872
111 4 0.681656 0.861543 0.578864
112 1 0.73954 0.9021 0.357149
113 3 0.777872 0.830702 0.309102
114 5 0.757609 0.918462 0.281471
115 1 0.721739 0.764896 0.328609
116 3 0.667532 0.756423 0.241788
117 4 0.706027 0.733417 0.392343
118 1 0.708747 0.712335 0.1401
119 3 0.755832 0.647007 0.134088
120 4 0.724541 0.748418 0.0840748
121 1 0.715673 0.573899 0.0797874
122 3 0.646319 0.553609 0.0698853
123 5 0.681501 0.546073 0.0428629
124 1 0.6539 0.458748 0.0384437
125 3 0.633317 0.435287 0.16146
126 4 0.673811 0.409285 0.0138794
127 1 0.556202 0.444856 0.134738
128 3 0.532709 0.372284 0.0800102
129 4 0.524689 0.487735 0.120993
130 1 0.5029 0.324864 0.185177
131 3 0.468594 0.348454 0.292966
132 4 0.536892 0.283304 0.196307
133 1 0.411174 0.288941 0.295027
134 3 0.390885 0.205215 0.262587
135 4 0.37258 0.322006 0.26958
136 1 0.377314 0.170677 0.391327
137 3 0.324778 0.198772 0.474856
138 4 0.404933 0.151804 0.449389
139 1 0.266155 0.153555 0.413679
140 3 0.23542 0.117611 0.528629
141 4 0.236768 0.136621 0.351558
142 1 0.279035 0.0426857 0.545557
143 3 0.277482 0.0680517 0.673842
144 4 0.302711 -0.00426241 0.526671
145 1 0.332175 0.131266 0.680065
146 3 0.316591 0.214814 0.726282
147 4 0.378636 0.126905 0.687087
148 1 0.296514 0.254225 0.606613
149 3 0.332993 0.332998 0.620263
150 4 0.262368 0.269247 0.66167
151 1 0.404936 0.301124 0.611048
152 3 0.428617 0.29805 0.486302
153 4 0.435838 0.266896 0.651175
154 1 0.453246 0.39062 0.476351
155 3 0.517577 0.399654 0.538032
156 4 0.438652 0.443476 0.461038
157 1 0.567414 0.378454 0.446641
158 3 0.579908 0.410796 0.32476
159 4 0.581038 0.325697 0.452669
160 1 0.640469 0.459943 0.345962
161 3 0.703782 0.448366 0.406757
162 4 0.629045 0.517503 0.348542
163 1 0.748314 0.437311 0.301558
164 3 0.751741 0.495146 0.201043
165 4 0.757392 0.380596 0.283613
166 1 0.824543 0.521425 0.203111
167 3 0.860667 0.446735 0.187455
168 4 0.847753 0.558442 0.253558
ITEM: TIMESTEP
3000
ITEM: NUMBER OF ATOMS
168
ITEM: BOX BOUNDS ss ss ss
-15.668 17.27
-13.948 12.469
-9.515 8.885
ITEM: ATOMS id type xs ys zs
1 1 0.118205 0.411955 0.886834
2 3 0.159955 0.484529 0.872188
3 4 0.0990853 0.423047 0.809598
4 1 0.225975 0.445053 0.912415
5 3 0.258157 0.381892 0.840312
6 4 0.242392 0.436906 0.991169
7 1 0.302359 0.432018 0.765031
8 3 0.357854 0.479225 0.815629
9 4 0.295755 0.454084 0.69171
10 1 0.41557 0.421737 0.798748
11 3 0.441314 0.411001 0.675483
12 4 0.430612 0.379638 0.846639
13 1 0.504125 0.463561 0.687665
14 3 0.563766 0.471785 0.763304
15 4 0.497585 0.51845 0.660323
16 1 0.61484 0.429506 0.685934
17 3 0.627759 0.46567 0.569979
18 4 0.623837 0.371397 0.687147
19 1 0.690546 0.515182 0.593522
20 3 0.755425 0.505475 0.640835
21 4 0.685594 0.569446 0.619056
22 1 0.787696 0.452032 0.539057
23 3 0.809333 0.487455 0.424538
24 4 0.792351 0.3989 0.514779
25 1 0.846562 0.564686 0.469377
26 3 0.909031 0.532057 0.512144
27 5 0.869727 0.513541 0.496136
28 1 0.95949 0.569788 0.430451
29 3 1.00551 0.584806 0.531632
30 4 0.978143 0.593714 0.361314
31 1 0.974545 0.660846 0.586195
32 3 0.933223 0.675818 0.694112
33 4 0.987074 0.712119 0.565695
34 1 0.863745 0.669664 0.642838
35 3 0.83701 0.582433 0.631724
36 4 0.832077 0.688955 0.589605
37 1 0.826592 0.562946 0.763563
38 3 0.803989 0.598586 0.875545
39 4 0.862104 0.53328 0.79085
40 1 0.73117 0.571734 0.871626
41 3 0.686016 0.505661 0.830376
42 5 0.731515 0.515694 0.872648
43 1 0.620826 0.532582 0.883257
44 3 0.590482 0.611456 0.926389
45 4 0.615714 0.486198 0.933268
46 1 0.517822 0.584464 0.936809
47 3 0.469121 0.528166 0.883001
48 4 0.521531 0.637621 0.899456
49 1 0.405463 0.561417 0.933887
50 3 0.37329 0.640116 0.949213
51 4 0.393 0.533749 1.00728
52 1 0.30945 0.633364 0.879806
53 3 0.260359 0.566926 0.881161
54 4 0.318965 0.664109 0.811837
55 1 0.195579 0.619157 0.874784
56 3 0.1748 0.669881 0.777294
57 4 0.169601 0.640705 0.941402
58 1 0.138769 0.604651 0.699011
59 3 0.0938343 0.530592 0.70328
60 4 0.170697 0.586241 0.639149
61 1 0.0331061 0.570584 0.64336
62 3 0.021176 0.494032 0.57874
63 4 0.00119993 0.604888 0.610815
64 1 0.08182 0.48555 0.50001
65 3 0.147385 0.519686 0.484015
66 4 0.052343 0.491495 0.433364
67 1 0.181049 0.455652 0.406621
68 3 0.217623 0.503195 0.316318
69 4 0.189129 0.399662 0.384575
70 1 0.162368 0.54426 0.249223
71 3 0.195717 0.626527 0.260111
72 4 0.121606 0.548127 0.2108
73 1 0.170427 0.653866 0.381439
74 3 0.230884 0.687002 0.432086
75 4 0.14019 0.66348 0.437903
76 1 0.268083 0.60622 0.467956
77 3 0.333079 0.619982 0.41449
78 4 0.270386 0.547078 0.487896
79 1 0.314101 0.614647 0.279985
80 3 0.345958 0.692695 0.25212
81 4 0.298026 0.585849 0.216389
82 1 0.292009 0.754853 0.281151
83 3 0.325107 0.820225 0.350108
84 4 0.251691 0.779759 0.27151
85 1 0.326996 0.779458 0.475976
86 3 0.395613 0.783413 0.514789
87 4 0.304329 0.755117 0.544296
88 1 0.422248 0.698087 0.474199
89 3 0.483345 0.72512 0.407419
90 4 0.423617 0.640409 0.47462
91 1 0.453903 0.739599 0.281692
92 3 0.49212 0.817469 0.280289
93 4 0.427629 0.731855 0.219264
94 1 0.443091 0.874879 0.341738
95 3 0.499944 0.909635 0.410153
96 4 0.404067 0.901449 0.352038
97 1 0.498114 0.853588 0.519646
98 3 0.57183 0.841407 0.534908
99 4 0.478846 0.817758 0.57825
100 1 0.582283 0.782711 0.424677
101 3 0.630423 0.835413 0.36603
102 4 0.569626 0.742403 0.370193
103 1 0.591336 0.896994 0.295629
104 3 0.63351 0.964211 0.332607
105 4 0.554509 0.907555 0.255273
106 1 0.596615 0.991734 0.443345
107 3 0.661659 1.00292 0.510006
108 4 0.564877 1.00229 0.498237
109 1 0.68599 0.913999 0.517382
110 3 0.754266 0.910128 0.471798
111 4 0.681154 0.863692 0.558962
112 1 0.73624 0.902091 0.339477
113 3 0.774084 0.831075 0.303919
114 5 0.734208 0.906569 0.254012
115 1 0.722159 0.762213 0.311998
116 3 0.66969 0.758527 0.219325
117 4 0.703434 0.731564 0.371491
118 1 0.704317 0.707767 0.122875
119 3 0.748273 0.631402 0.128382
120 4 0.717624 0.744108 0.0648677
121 1 0.705924 0.569293 0.0660528
122 3 0.634136 0.541633 0.0403901
123 5 0.691847 0.601046 0.132345
124 1 0.650454 0.449912 0.022784
125 3 0.62805 0.414238 0.140156
126 4 0.673935 0.398651 0.0142777
127 1 0.553643 0.438447 0.13522
128 3 0.516178 0.372359 0.0838884
129 4 0.524625 0.481435 0.116216
130 1 0.508391 0.313502 0.193482
131 3 0.473221 0.340951 0.300827
132 4 0.541333 0.275112 0.216687
133 1 0.412696 0.284546 0.305874
134 3 0.398045 0.1961 0.293271
135 4 0.377337 0.312245 0.275998
136 1 0.384854 0.165988 0.416427
137 3 0.327172 0.196032 0.48341
138 4 0.411787 0.149324 0.477297
139 1 0.272457 0.149721 0.428822
140 3 0.23696 0.127386 0.54111
141 4 0.246904 0.127284 0.363061
142 1 0.276954 0.051705 0.576418
143 3 0.282275 0.0799769 0.698659
144 4 0.303907 0.00366138 0.568058
145 1 0.340515 0.135503 0.707587
146 3 0.326382 0.220606 0.743567
147 4 0.385261 0.130649 0.709924
148 1 0.302727 0.255717 0.624404
149 3 0.339616 0.330925 0.656921
150 4 0.267193 0.266994 0.670839
151 1 0.410072 0.304925 0.621869
152 3 0.44692 0.295627 0.511576
153 4 0.437004 0.265294 0.661809
154 1 0.456378 0.38845 0.479675
155 3 0.520416 0.403854 0.548127
156 4 0.440614 0.439476 0.46728
157 1 0.569637 0.379647 0.449126
158 3 0.579946 0.40153 0.321965
159 4 0.585337 0.32565 0.454783
160 1 0.639566 0.46388 0.337571
161 3 0.702147 0.455398 0.39791
162 4 0.628196 0.518757 0.337087
163 1 0.748485 0.43656 0.289896
164 3 0.751181 0.491272 0.188546
165 4 0.75896 0.380747 0.275022
166 1 0.824804 0.519454 0.200684
167 3 0.838646 0.608904 0.214499
168 4 0.844541 0.563083 0.240732
ITEM: TIMESTEP
4000
ITEM: NUMBER OF ATOMS
168
ITEM: BOX BOUNDS ss ss ss
-15.668 17.27
-13.948 12.469
-9.515 8.885
ITEM: ATOMS id type xs ys zs
1 1 0.117985 0.416282 0.89642
2 3 0.169804 0.475721 0.854622
3 4 0.110739 0.384389 0.82689
4 1 0.227239 0.447937 0.935372
5 3 0.266968 0.384614 0.87653
6 4 0.24548 0.433583 1.01191
7 1 0.304072 0.439883 0.785566
8 3 0.355199 0.478061 0.858722
9 4 0.292175 0.472853 0.717478
10 1 0.416646 0.430728 0.809486
11 3 0.446447 0.40842 0.696327
12 4 0.427251 0.387118 0.856511
13 1 0.503031 0.47181 0.687487
14 3 0.562668 0.483396 0.759615
15 4 0.496003 0.52544 0.656139
16 1 0.612705 0.432697 0.687499
17 3 0.625786 0.462701 0.566186
18 4 0.620748 0.37579 0.68118
19 1 0.687354 0.516212 0.58964
20 3 0.75134 0.495299 0.64768
21 4 0.687807 0.571221 0.610063
22 1 0.786947 0.456373 0.537343
23 3 0.819115 0.482414 0.428839
24 4 0.79053 0.40155 0.522472
25 1 0.848966 0.566141 0.467238
26 3 0.910827 0.529109 0.513495
27 5 0.876138 0.525111 0.423116
28 1 0.957953 0.566698 0.416434
29 3 1.01034 0.593623 0.499528
30 4 0.973983 0.585222 0.342138
31 1 0.972986 0.66066 0.571009
32 3 0.935206 0.691872 0.673967
33 4 0.991909 0.707282 0.541256
34 1 0.86619 0.668692 0.634908
35 3 0.83328 0.589971 0.628318
36 4 0.836113 0.703595 0.60009
37 1 0.82881 0.563844 0.756137
38 3 0.801311 0.606712 0.859324
39 4 0.862422 0.527455 0.786088
40 1 0.731678 0.566919 0.868541
41 3 0.681622 0.519746 0.803381
42 5 0.703672 0.60878 0.900146
43 1 0.61997 0.531071 0.883884
44 3 0.597266 0.598127 0.960846
45 4 0.619718 0.481188 0.92777
46 1 0.521746 0.599925 0.926125
47 3 0.471066 0.549495 0.870194
48 4 0.526556 0.647639 0.880997
49 1 0.409581 0.578356 0.93597
50 3 0.379285 0.662034 0.940599
51 4 0.396029 0.54563 1.00346
52 1 0.311772 0.645 0.884067
53 3 0.263935 0.581976 0.840756
54 4 0.323105 0.672876 0.810838
55 1 0.200108 0.624366 0.877469
56 3 0.184436 0.673867 0.775254
57 4 0.175007 0.643817 0.941287
58 1 0.138737 0.617496 0.702581
59 3 0.0934629 0.546499 0.735607
60 4 0.171142 0.607578 0.644001
61 1 0.0364398 0.561636 0.648564
62 3 0.0241252 0.482894 0.589427
63 4 0.00202988 0.595964 0.615207
64 1 0.0879947 0.477681 0.510807
65 3 0.151585 0.514044 0.495871
66 4 0.0568832 0.475869 0.4474
67 1 0.187758 0.451194 0.41459
68 3 0.216352 0.511192 0.331914
69 4 0.193319 0.398497 0.38238
70 1 0.156076 0.546113 0.26622
71 3 0.179242 0.632218 0.257508
72 4 0.115565 0.54979 0.227524
73 1 0.166054 0.657125 0.39464
74 3 0.226885 0.686277 0.45623
75 4 0.131986 0.673545 0.4437
76 1 0.264081 0.605527 0.468584
77 3 0.331496 0.624516 0.41417
78 4 0.267231 0.552287 0.500586
79 1 0.312547 0.606872 0.284563
80 3 0.345437 0.678761 0.241521
81 4 0.292698 0.585222 0.215077
82 1 0.295402 0.748052 0.278518
83 3 0.324024 0.817103 0.345369
84 4 0.251458 0.77221 0.262522
85 1 0.326165 0.776917 0.469544
86 3 0.396431 0.780228 0.516246
87 4 0.296884 0.760884 0.527692
88 1 0.418818 0.697558 0.465625
89 3 0.479869 0.715932 0.400538
90 4 0.422628 0.639715 0.474029
91 1 0.449092 0.740395 0.280793
92 3 0.490638 0.814118 0.275337
93 4 0.418813 0.734269 0.215007
94 1 0.442587 0.876468 0.329962
95 3 0.490392 0.917025 0.412123
96 4 0.401135 0.902324 0.353438
97 1 0.492164 0.852624 0.507522
98 3 0.56515 0.848639 0.511535
99 4 0.479051 0.817852 0.56939
100 1 0.577422 0.787167 0.411844
101 3 0.62908 0.840532 0.355789
102 4 0.571255 0.73733 0.371493
103 1 0.583855 0.894094 0.277936
104 3 0.615088 0.971294 0.306123
105 4 0.549227 0.91192 0.228377
106 1 0.596468 0.991522 0.431825
107 3 0.663743 1.00509 0.474773
108 4 0.566414 0.992079 0.496231
109 1 0.68209 0.913638 0.504821
110 3 0.746643 0.904459 0.451158
111 4 0.676052 0.865507 0.549372
112 1 0.732829 0.904588 0.321902
113 3 0.771153 0.829403 0.293858
114 5 0.726018 0.848027 0.309021
115 1 0.715536 0.765943 0.292313
116 3 0.66326 0.752168 0.207083
117 4 0.699256 0.737049 0.358808
118 1 0.70107 0.706714 0.105886
119 3 0.747389 0.635613 0.10307
120 4 0.712573 0.739654 0.0455551
121 1 0.699123 0.569335 0.0563333
122 3 0.631972 0.540264 0.0352685
123 5 0.725664 0.587928 0.121483
124 1 0.642878 0.449671 0.0184635
125 3 0.625229 0.422845 0.145674
126 4 0.665608 0.396353 0.00584085
127 1 0.550147 0.436068 0.139244
128 3 0.519424 0.360501 0.0878611
129 4 0.514328 0.473452 0.125925
130 1 0.506612 0.312031 0.201999
131 3 0.479466 0.331114 0.321663
132 4 0.541095 0.272706 0.212434
133 1 0.414656 0.280841 0.315605
134 3 0.401017 0.19458 0.293207
135 4 0.37707 0.307866 0.283522
136 1 0.380694 0.167123 0.420536
137 3 0.327828 0.193291 0.492588
138 4 0.412402 0.14636 0.476976
139 1 0.269219 0.146885 0.451631
140 3 0.23235 0.0992659 0.544961
141 4 0.241221 0.123631 0.3916
142 1 0.288554 0.0439045 0.59087
143 3 0.292436 0.0628745 0.714926
144 4 0.310411 -0.00450983 0.569318
145 1 0.346216 0.130625 0.713695
146 3 0.320927 0.211781 0.748398
147 4 0.390714 0.127217 0.712735
148 1 0.305265 0.251125 0.633611
149 3 0.342547 0.321341 0.670615
150 4 0.269788 0.267095 0.674312
151 1 0.411884 0.305055 0.631214
152 3 0.442705 0.296593 0.512108
153 4 0.442163 0.276782 0.679754
154 1 0.460226 0.3869 0.486391
155 3 0.52376 0.391812 0.548475
156 4 0.44132 0.437783 0.471223
157 1 0.570396 0.37597 0.445834
158 3 0.576365 0.402615 0.324699
159 4 0.586916 0.320239 0.447629
160 1 0.636535 0.461315 0.329907
161 3 0.700632 0.456247 0.392975
162 4 0.628337 0.516253 0.342149
163 1 0.748115 0.434198 0.293464
164 3 0.769469 0.475645 0.180201
165 4 0.755053 0.381814 0.261107
166 1 0.821085 0.535647 0.230576
167 3 0.858789 0.604563 0.28524
168 4 0.86521 0.517206 0.237655
ITEM: TIMESTEP
5000
ITEM: NUMBER OF ATOMS
168
ITEM: BOX BOUNDS ss ss ss
-15.668 17.27
-13.948 12.469
-9.515 8.885
ITEM: ATOMS id type xs ys zs
1 1 0.116229 0.427869 0.899213
2 3 0.164473 0.487763 0.860282
3 4 0.121913 0.368622 0.87985
4 1 0.226415 0.461137 0.92186
5 3 0.248205 0.390421 0.850491
6 4 0.242652 0.464904 0.995339
7 1 0.307673 0.427721 0.785223
8 3 0.359976 0.489826 0.810266
9 4 0.293885 0.442863 0.702823
10 1 0.420242 0.42936 0.823037
11 3 0.448703 0.405369 0.708112
12 4 0.437149 0.385303 0.867642
13 1 0.501199 0.47385 0.691583
14 3 0.561145 0.475745 0.771274
15 4 0.496948 0.528289 0.663328
16 1 0.611997 0.435587 0.685909
17 3 0.63115 0.461838 0.567279
18 4 0.620524 0.379679 0.687636
19 1 0.692427 0.514475 0.595038
20 3 0.757365 0.48992 0.639844
21 4 0.691908 0.569139 0.613914
22 1 0.788031 0.449492 0.532813
23 3 0.810885 0.479819 0.414562
24 4 0.787483 0.397005 0.511059
25 1 0.846691 0.558356 0.453365
26 3 0.910116 0.535464 0.507659
27 5 0.834365 0.601189 0.399107
28 1 0.955418 0.566039 0.404342
29 3 1.01038 0.599547 0.474939
30 4 0.973799 0.583228 0.333896
31 1 0.973245 0.656731 0.559069
32 3 0.93738 0.692101 0.660679
33 4 0.993251 0.7026 0.530162
34 1 0.864222 0.673266 0.624213
35 3 0.833705 0.589777 0.611448
36 4 0.835222 0.704372 0.577017
37 1 0.828052 0.567105 0.74331
38 3 0.803209 0.611637 0.84806
39 4 0.863176 0.53536 0.77142
40 1 0.736073 0.566736 0.866463
41 3 0.682764 0.526185 0.793961
42 5 0.775894 0.549024 0.897053
43 1 0.624957 0.538679 0.885954
44 3 0.599217 0.611524 0.943671
45 4 0.622654 0.485873 0.924915
46 1 0.524536 0.604312 0.926311
47 3 0.476523 0.537839 0.911359
48 4 0.527991 0.656206 0.886225
49 1 0.409063 0.580808 0.933521
50 3 0.380456 0.666536 0.944655
51 4 0.402009 0.552497 1.00453
52 1 0.314662 0.649246 0.882876
53 3 0.264068 0.585992 0.856295
54 4 0.322863 0.677887 0.814057
55 1 0.200397 0.629726 0.88786
56 3 0.175051 0.678637 0.786286
57 4 0.17468 0.654482 0.950789
58 1 0.142514 0.613204 0.710755
59 3 0.101884 0.539312 0.727882
60 4 0.173501 0.599882 0.653065
61 1 0.0376449 0.563765 0.662656
62 3 0.024397 0.483649 0.6006
63 4 0.00398184 0.593428 0.619736
64 1 0.0865439 0.47283 0.529216
65 3 0.153384 0.512017 0.517149
66 4 0.0552561 0.467152 0.473662
67 1 0.183565 0.451599 0.427767
68 3 0.213089 0.51634 0.34526
69 4 0.191106 0.399374 0.395204