LAMMPS protain data file

         324  atoms
         430  bonds
           0  angles
           0  dihedrals
           0  impropers

           5  atom types
           5  bond types
           0  angle types
           0  dihedral types
           0  improper types

-200.0	200.0	xlo xhi
-200.0	200.0	ylo yhi
-200.0	200.0	zlo zhi

Masses

           1	27.0
           2	14.0
           3	28.0
           4	60.0
           5	60.0

Atoms

           1	1	1	1	0.0	21.62800026	26.69099998	-3.98300004
           2	1	1	3	0.0	21.0720005	28.07900047	-2.09299994
           3	1	1	4	0.0	21.11700058	27.77000046	-5.00199986
           4	1	2	1	0.0	19.39500046	26.125	-0.949
           5	1	2	3	0.0	19.76000023	26.57500076	1.37100005
           6	1	2	4	0.0	18.43899918	24.91399956	-0.85600001
           7	1	3	1	0.0	22.30999947	25.875	1.48800004
           8	1	3	3	0.0	24.20299911	26.95000076	2.36999989
           9	1	3	4	0.0	23.00600052	24.54000092	1.74100006
          10	1	4	1	0.0	24.28700066	28.90800095	0.33199999
          11	1	4	3	0.0	22.69099998	30.65800095	0.48699999
          12	1	4	4	0.0	24.59199905	29.12199974	-1.21099997
          13	1	5	1	0.0	24.07500076	32.125	2.37199998
          14	1	5	3	0.0	25.27199936	33.30899811	0.66299999
          15	1	5	4	0.0	24.92399979	32.46099854	3.66499996
          16	1	6	1	0.0	23.20899963	35.25999832	0.39700001
          17	1	6	3	0.0	23.16600037	36.91500092	2.11800003
          18	1	6	4	0.0	21.75099945	35.61700058	-0.024
          19	1	7	1	0.0	25.5739994	38.06100082	1.49399996
          20	1	7	3	0.0	25.1609993	39.41199875	-0.44400001
          21	1	7	4	0.0	27.09900093	37.85699844	1.59800005
          22	1	8	1	0.0	25.45700073	41.80699921	1.03699994
          23	1	8	3	0.0	27.1420002	42.06299973	2.68199992
          24	1	8	4	0.0	24.09300041	42.61000061	1.25399995
          25	1	9	1	0.0	27.9260006	44.55899811	1.745
          26	1	9	3	0.0	28.48200035	44.84600067	4.09299994
          27	1	9	4	0.0	28.20100021	45.81499863	0.92900002
          28	1	10	1	0.0	25.96999931	45.53699875	4.86800003
          29	1	10	3	0.0	26.08699989	44.57300186	7.01599979
          30	1	10	4	0.0	24.60300064	46.23600006	4.90199995
          31	1	11	1	0.0	25.47299957	42.02199936	6.15100002
          32	1	11	3	0.0	26.79899979	40.36500168	7.21500015
          33	1	11	4	0.0	24.41500092	41.06900024	5.65100002
          34	1	12	1	0.0	29.09900093	40.93299866	5.75899982
          35	1	12	3	0.0	30.0720005	39.61600113	7.53000021
          36	1	12	4	0.0	30.09799957	41.55699921	4.78100014
          37	1	13	1	0.0	30.2840004	41.7480011	9.26500034
          38	1	13	3	0.0	30.02499962	39.86100006	10.73799992
          39	1	13	4	0.0	30.34700012	43.15999985	9.875
          40	1	14	1	0.0	27.29299927	40.13999939	10.97799969
          41	1	14	3	0.0	27.34000015	37.7859993	11.45300007
          42	1	14	4	0.0	25.79000092	40.63600159	10.86600018
          43	1	15	1	0.0	27.1989994	37.02000046	8.81099987
          44	1	15	3	0.0	28.54700089	35.05400085	8.86800003
          45	1	15	4	0.0	26.53700066	36.98300171	7.40500021
          46	1	16	1	0.0	30.87899971	36.36299896	8.14099979
          47	1	16	3	0.0	32.40000153	35.6609993	9.80000019
          48	1	16	4	0.0	31.4470005	36.82600021	6.78200006
          49	1	17	1	0.0	33.08399963	38.20299911	10.58600044
          50	1	17	3	0.0	33.68799973	37.31000137	12.71899986
          51	1	17	4	0.0	33.48600006	39.6590004	10.46399975
          52	1	18	1	0.0	31.08099937	37.13299942	13.62800026
          53	1	18	3	0.0	29.87899971	35.27500153	14.47200012
          54	1	18	4	0.0	30.03800011	38.13700104	14.18400002
          55	1	19	1	0.0	30.36400032	33.65499878	12.25500011
          56	1	19	3	0.0	32.09000015	32.8730011	13.73900032
          57	1	19	4	0.0	30.72400093	33.06499863	10.875
          58	1	20	1	0.0	30.65999985	30.5909996	14.43000031
          59	1	20	3	0.0	30.5359993	29.0739994	12.61100006
          60	1	20	4	0.0	29.45000076	30.05200005	15.20300007
          61	1	21	1	0.0	32.91899872	28.07900047	12.60599995
          62	1	21	3	0.0	33.31399918	29.90399933	11.00800037
          63	1	21	5	0.0	32.51100159	24.86806411	11.72324527
          64	1	22	1	0.0	34.54399872	28.21800041	9.19499969
          65	1	22	3	0.0	32.45199966	27.92300034	8.14500046
          66	1	22	4	0.0	35.33599854	26.99399948	8.71100044
          67	1	23	1	0.0	32.78300095	30.04000092	6.36899996
          68	1	23	3	0.0	34.56700134	31.00099945	5.1170001
          69	1	23	4	0.0	31.96999931	31.28300095	6.86000013
          70	1	24	1	0.0	33.78499985	29.85199928	2.68300009
          71	1	24	3	0.0	31.75499916	30.60899925	1.70799994
          72	1	24	4	0.0	33.81800079	28.4640007	2.03399992
          73	1	25	1	0.0	32.85900116	32.99700165	0.71399999
          74	1	25	3	0.0	34.47999954	33.0870018	-1.04700005
          75	1	25	4	0.0	33.0890007	34.36899948	1.36800003
          76	1	26	1	0.0	32.52000046	32.87099838	-3.10800004
          77	1	26	3	0.0	31.00699997	34.64099884	-3.56500006
          78	1	26	4	0.0	31.61899948	31.81100082	-3.71000004
          79	1	27	1	0.0	32.98099899	36.24200058	-4.921
          80	1	27	3	0.0	33.56399918	35.2820015	-7.0539999
          81	1	27	4	0.0	34.22999954	37.08000183	-4.67999983
          82	1	28	1	0.0	31.16399956	35.95800018	-8.28499985
          83	1	28	3	0.0	30.04500008	38.09999847	-8.30799961
          84	1	28	4	0.0	30.35499954	34.64899826	-8.23799992
          85	1	29	1	0.0	29.21100044	37.76699829	-11.00500011
          86	1	29	3	0.0	29.15999985	35.86000061	-12.5170002
          87	1	29	4	0.0	29.99500084	38.90299988	-11.5909996
          88	1	30	1	0.0	26.74300003	36.60100174	-13.58300018
          89	1	30	3	0.0	27.28199959	35.42900085	-15.59200001
          90	1	30	4	0.0	25.31999969	37.1609993	-13.78899956
          91	1	31	1	0.0	28.97699928	37.46699905	-16.52199936
          92	1	31	3	0.0	30.87299919	36.41500092	-17.45700073
          93	1	31	4	0.0	29.45800018	38.875	-16.81699944
          94	1	32	1	0.0	31.74900055	35.26399994	-15.06700039
          95	1	32	3	0.0	30.90200043	33.01599884	-14.64299965
          96	1	32	4	0.0	32.29100037	35.60300064	-13.64900017
          97	1	33	1	0.0	31.92300034	31.97200012	-16.91500092
          98	1	33	3	0.0	31.73699951	30.03700066	-15.5010004
          99	1	33	5	0.0	32.09700012	29.26063173	-16.84172881
         100	1	34	1	0.0	34.30899811	30.13299942	-14.57699966
         101	1	34	3	0.0	33.58300018	29.11300087	-12.54199982
         102	1	34	4	0.0	35.76900101	30.54700089	-14.43900013
         103	1	35	1	0.0	32.18700027	31.34399986	-11.64500046
         104	1	35	3	0.0	30.66799927	29.73999977	-10.77999973
         105	1	35	4	0.0	31.67399979	32.74700165	-11.36600018
         106	1	36	1	0.0	29.1439991	29.59799957	-13.08399963
         107	1	36	3	0.0	28.88199997	27.27300072	-12.65299988
         108	1	36	4	0.0	28.26300049	30.08399963	-14.25599957
         109	1	37	1	0.0	31.23699951	26.4640007	-13.69799995
         110	1	37	3	0.0	31.2859993	24.63299942	-12.11299992
         111	1	37	4	0.0	32.54600143	26.46699905	-14.52299976
         112	1	38	1	0.0	32.05199814	26.05500031	-9.9829998
         113	1	38	3	0.0	30.8239994	25.54299927	-8.00500011
         114	1	38	4	0.0	33.27399826	26.6779995	-9.22000027
         115	1	39	1	0.0	28.53100014	26.83699989	-8.70199966
         116	1	39	3	0.0	27.77099991	25.24300003	-7.05200005
         117	1	39	4	0.0	27.45299911	27.67200089	-9.39900017
         118	1	40	1	0.0	27.44000053	23.17300034	-8.65400028
         119	1	40	3	0.0	27.91799927	21.73200035	-6.80700016
         120	1	40	4	0.0	27.37400055	22.26000023	-9.91399956
         121	1	41	1	0.0	30.63400078	22.12999916	-6.92500019
         122	1	41	3	0.0	30.5529995	21.97800064	-4.58300018
         123	1	41	4	0.0	32.09400177	22.36700058	-7.3920002
         124	1	42	1	0.0	29.875	24.63100052	-4.1500001
         125	1	42	3	0.0	28.55599976	23.83300018	-2.27699995
         126	1	42	4	0.0	29.77700043	26.15099907	-4.30100012
         127	1	43	1	0.0	26.43600082	23.02300072	-3.7190001
         128	1	43	3	0.0	26.29800034	21.2689991	-2.11100006
         129	1	43	4	0.0	25.34700012	22.85300064	-4.79300022
         130	1	44	1	0.0	28.02400017	19.58600044	-3.38199997
         131	1	44	3	0.0	28.62000084	18.91300011	-1.15799999
         132	1	44	4	0.0	28.95499992	18.88800049	-4.3829999
         133	1	45	1	0.0	30.54000092	20.88999939	-0.84399998
         134	1	45	3	0.0	29.87599945	20.93099976	1.45700002
         135	1	45	4	0.0	31.66300011	21.93799973	-1.16499996
         136	1	46	1	0.0	27.74099922	22.63199997	1.11699998
         137	1	46	3	0.0	26.82699966	21.42499924	3.00500011
         138	1	46	4	0.0	26.77000046	23.67000008	0.57300001
         139	1	47	1	0.0	25.99799919	19.25600052	1.48800004
         140	1	47	3	0.0	26.77899933	17.93199921	3.36599994
         141	1	47	4	0.0	25.23900032	18.5340004	0.36700001
         142	1	48	1	0.0	29.13299942	17.23600006	2.16000009
         143	1	48	3	0.0	30.06500053	16.92200089	4.32000017
         144	1	48	4	0.0	30.28800011	16.88100052	1.222
         145	1	49	1	0.0	30.52099991	19.62100029	4.78100014
         146	1	49	3	0.0	29.92700005	21.01199913	6.5999999
         147	1	49	4	0.0	31.63299942	20.5739994	4.36600018
         148	1	50	1	0.0	27.17900085	20.53199959	6.34600019
         149	1	50	3	0.0	27.84300041	19.1590004	8.24300003
         150	1	50	4	0.0	25.85499954	19.95999908	5.89900017
         151	1	51	1	0.0	27.73800087	21.1060009	10.02299976
         152	1	51	3	0.0	29.49699974	21.69300079	11.46899986
         153	1	51	5	0.0	27.34199905	19.38366502	10.5549496
         154	1	52	1	0.0	31.51000023	21.76399994	9.59000015
         155	1	52	3	0.0	33.01699829	23.59799957	9.17700005
         156	1	52	4	0.0	32.45899963	20.70400047	8.9659996
         157	1	53	1	0.0	31.45000076	24.60499954	7.06799984
         158	1	53	3	0.0	29.27199936	24.45400047	6.27899981
         159	1	53	4	0.0	32.22800064	24.02199936	5.86600018
         160	1	54	1	0.0	29.05200005	27.3409996	5.92799997
         161	1	54	3	0.0	30.71699905	28.3579998	4.55299997
         162	1	54	4	0.0	28.55699921	28.54400063	6.82999992
         163	1	55	1	0.0	29.22200012	28.36000061	2.26699996
         164	1	55	3	0.0	27.13699913	29.56599998	2.23300004
         165	1	55	4	0.0	29.09300041	27.2859993	1.16600001
         166	1	56	1	0.0	28.22999954	31.87999916	1.20899999
         167	1	56	3	0.0	29.78100014	32.15999985	-0.565
         168	1	56	4	0.0	28.51199913	32.81600189	2.41000009
         169	1	57	1	0.0	28.13999939	34.02099991	-1.95200002
         170	1	57	3	0.0	26.97400093	35.97800064	-1.22800004
         171	1	57	4	0.0	27.19400024	33.54199982	-3.09200001
         172	1	58	1	0.0	28.69099998	37.68999863	-2.66400003
         173	1	58	3	0.0	29.93300056	37.84700012	-4.69000006
         174	1	58	4	0.0	29.66500092	38.40800095	-1.74699998
         175	1	59	1	0.0	27.74099922	38.9980011	-6.10200024
         176	1	59	3	0.0	27.83499908	41.34899902	-5.53999996
         177	1	59	4	0.0	26.27099991	38.97800064	-6.56400013
         178	1	60	1	0.0	30.22999954	41.7840004	-6.82800007
         179	1	60	3	0.0	30.06200027	44.00899887	-7.50600004
         180	1	60	4	0.0	31.73200035	41.53900146	-7.24700022
         181	1	61	1	0.0	27.98200035	43.59999847	-9.34799957
         182	1	61	3	0.0	26.87999916	45.54800034	-8.47399998
         183	1	61	4	0.0	27.22400093	43.0019989	-10.51500034
         184	1	62	1	0.0	25.31599998	44.02299881	-6.6880002
         185	1	62	3	0.0	25.22800064	45.43899918	-4.76800013
         186	1	62	4	0.0	24.30500031	42.93199921	-6.35699987
         187	1	63	1	0.0	27.72500038	44.60300064	-3.75
         188	1	63	3	0.0	30.04400063	44.01800156	-3.875
         189	1	63	4	0.0	27.59199905	43.47000122	-2.72399998
         190	1	64	1	0.0	30.8239994	46.38399887	-4.99900007
         191	1	64	3	0.0	32.95199966	47.00799942	-4.20800018
         192	1	64	4	0.0	30.5890007	47.55199814	-5.96099997
         193	1	65	1	0.0	32.13899994	47.47900009	-1.59300005
         194	1	65	3	0.0	34.08000183	46.9109993	-0.398
         195	1	65	5	0.0	31.3220005	45.56430112	-0.88911264
         196	1	66	1	0.0	33.47100067	44.24100113	-0.13600001
         197	1	66	3	0.0	35.77099991	43.73300171	-0.049
         198	1	66	4	0.0	32.66500092	42.97499847	0.35699999
         199	1	67	1	0.0	35.90399933	42.81700134	-2.72600007
         200	1	67	3	0.0	38.24700165	43.14599991	-2.21300006
         201	1	67	4	0.0	35.58300018	42.59199905	-4.19299984
         202	1	68	1	0.0	38.19900131	45.86800003	-2.64299989
         203	1	68	3	0.0	40.04700089	46.05599976	-1.176
         204	1	68	4	0.0	37.69100189	47.24300003	-3.03200006
         205	1	69	1	0.0	38.62400055	45.54399872	1.10599995
         206	1	69	3	0.0	40.32300186	44.4280014	2.26099992
         207	1	69	4	0.0	37.57300186	45.46699905	2.22600007
         208	1	70	1	0.0	40.16400146	42.08300018	0.66100001
         209	1	70	3	0.0	41.86100006	40.92399979	-0.60600001
         210	1	70	4	0.0	39.15499878	40.89300156	0.72899997
         211	1	71	1	0.0	42.27899933	43.09799957	-2.32500005
         212	1	71	3	0.0	42.9129982	41.67200089	-4.14699984
         213	1	71	5	0.0	41.29299927	41.0499014	-2.52192125
         214	1	72	1	0.0	40.34400177	40.80599976	-4.67299986
         215	1	72	3	0.0	40.10699844	42.61600113	-6.13600016
         216	1	72	4	0.0	38.85900116	40.3390007	-4.47399998
         217	1	73	1	0.0	41.50500107	41.35400009	-8.2329998
         218	1	73	3	0.0	40.72900009	41.18700027	-10.47999954
         219	1	73	4	0.0	43.05699921	41.2840004	-8.3920002
         220	1	74	1	0.0	39.69300079	38.6269989	-10.21100044
         221	1	74	3	0.0	38.68199921	37.54199982	-8.30900002
         222	1	74	5	0.0	40.34700012	36.00787979	-10.97192245
         223	1	75	1	0.0	36.77199936	36.1780014	-9.88000011
         224	1	75	3	0.0	37.0870018	35.04499817	-11.99300003
         225	1	75	4	0.0	35.38899994	36.89799881	-9.74100018
         226	1	76	1	0.0	36.0019989	33.58399963	-8.87300014
         227	1	76	3	0.0	38.31600189	33.24700165	-8.30500031
         228	1	76	4	0.0	35.40999985	32.16199875	-8.83500004
         229	1	77	1	0.0	37.91899872	34.08300018	-5.64900017
         230	1	77	3	0.0	36.01300049	33.90499878	-4.2579999
         231	1	77	4	0.0	38.5909996	35.42900085	-5.27400017
         232	1	78	1	0.0	37.20899963	31.88500023	-2.60599995
         233	1	78	3	0.0	39.24599838	32.26900101	-1.36000001
         234	1	78	4	0.0	37.18899918	30.36000061	-2.68099999
         235	1	79	1	0.0	37.97999954	33.29999924	0.87300003
         236	1	79	3	0.0	36.2480011	32.21699905	2.09699988
         237	1	79	4	0.0	37.64799881	34.76599884	1.23399997
         238	1	80	1	0.0	37.99700165	30.90399933	3.8599999
         239	1	80	3	0.0	39.39799881	32.06200027	5.41300011
         240	1	80	4	0.0	38.7840004	29.5739994	3.85800004
         241	1	81	1	0.0	37.26800156	32.83100128	7.10699987
         242	1	81	3	0.0	36.32799911	30.90699959	8.29800034
         243	1	81	4	0.0	36.15000153	33.87599945	7.20300007
         244	1	82	1	0.0	37.77899933	31.52899933	10.62899971
         245	1	82	3	0.0	38.97200012	33.36100006	11.52000046
         246	1	82	4	0.0	38.75099945	30.42700005	10.93000031
         247	1	83	1	0.0	37.4090004	33.65599823	13.78100014
         248	1	83	3	0.0	38.47000122	35.75500107	13.90200043
         249	1	83	4	0.0	38.61899948	33.15100098	14.61100006
         250	1	84	1	0.0	36.89699936	36.91400146	11.87199974
         251	1	84	3	0.0	38.17699814	38.54800034	10.67000008
         252	1	84	5	0.0	36.88600159	35.59962306	11.25410287
         253	1	85	1	0.0	39.94200134	36.6629982	9.67800045
         254	1	85	3	0.0	39.61100006	34.56100082	8.67099953
         255	1	85	4	0.0	41.20100021	36.49900055	10.56000042
         256	1	86	1	0.0	40.9640007	35.22100067	6.33300018
         257	1	86	3	0.0	43.13199997	34.56100082	7.14599991
         258	1	86	4	0.0	41.35900116	36.04999924	5.09399986
         259	1	87	1	0.0	42.60200119	31.83499908	6.921
         260	1	87	3	0.0	44.43799973	30.85400009	5.69700003
         261	1	87	4	0.0	41.81800079	30.68799973	7.546
         262	1	88	1	0.0	43.22600174	30.91399956	3.24799991
         263	1	88	3	0.0	41.24300003	31.79500008	2.30699992
         264	1	88	4	0.0	43.26499939	29.40500069	3.24000001
         265	1	89	1	0.0	42.27899933	31.99399948	-0.245
         266	1	89	3	0.0	43.7519989	30.54000092	-1.44400001
         267	1	89	4	0.0	42.48600006	33.48799896	-0.55699998
         268	1	90	1	0.0	42.04299927	30.41300011	-3.67700005
         269	1	90	3	0.0	40.23099899	31.56500053	-4.77199984
         270	1	90	4	0.0	41.54199982	28.99799919	-3.63899994
         271	1	91	1	0.0	41.77299881	32.3390007	-6.93599987
         272	1	91	3	0.0	42.47900009	30.60099983	-8.44699955
         273	1	91	4	0.0	42.80799866	33.44800186	-7.24499989
         274	1	92	1	0.0	40.29199982	30.80500031	-10.09200001
         275	1	92	3	0.0	39.30099869	29.05200005	-8.77400017
         276	1	92	5	0.0	40.46900177	28.90100521	-10.74888792
         277	1	93	1	0.0	38.18500137	27.78899956	-10.90999985
         278	1	93	3	0.0	40.31999969	26.61899948	-10.67199993
         279	1	93	4	0.0	37.50699997	27.52899933	-12.24300003
         280	1	94	1	0.0	39.08200073	24.36800003	-9.52499962
         281	1	94	3	0.0	36.83399963	23.55800056	-9.60999966
         282	1	94	4	0.0	39.69800186	24.54899979	-8.13500023
         283	1	95	1	0.0	37.64300156	20.85199928	-9.43900013
         284	1	95	3	0.0	37.76900101	21.08300018	-7.04400015
         285	1	95	4	0.0	38.45899963	19.67900085	-10.0010004
         286	1	96	1	0.0	35.70100021	19.32500076	-6.57999992
         287	1	96	3	0.0	36.93299866	18.96899986	-4.54500008
         288	1	96	4	0.0	34.54100037	18.33099937	-6.66099977
         289	1	97	1	0.0	38.72000122	17.18000031	-5.6079998
         290	1	97	3	0.0	40.18600082	18.04899979	-3.96700001
         291	1	97	5	0.0	37.64400101	14.82895493	-4.83776713
         292	1	98	1	0.0	41.00299835	20.24900055	-5.48999977
         293	1	98	3	0.0	41.07500076	21.40600014	-3.41300011
         294	1	98	4	0.0	41.34899902	21.14900017	-6.66499996
         295	1	99	1	0.0	38.43500137	22.14599991	-3.42400002
         296	1	99	3	0.0	38.73899841	21.95700073	-0.98000002
         297	1	99	4	0.0	37.02799988	22.56699944	-3.87899995
         298	1	100	1	0.0	38.19499969	19.29100037	-0.926
         299	1	100	3	0.0	39.71099854	19.4489994	0.926
         300	1	100	4	0.0	37.7519989	17.84000015	-1.13900006
         301	1	101	1	0.0	41.96900177	19.19499969	-0.546
         302	1	101	3	0.0	42.95999908	20.63299942	1.14300001
         303	1	101	4	0.0	42.97900009	18.94499969	-1.64100003
         304	1	102	1	0.0	42.10100174	22.95000076	-0.063
         305	1	102	3	0.0	41.94900131	23.64999962	2.20900011
         306	1	102	4	0.0	41.64300156	23.9810009	-1.08399999
         307	1	103	1	0.0	39.40999985	22.70000076	2.6559999
         308	1	103	3	0.0	40.25099945	22.31100082	4.89599991
         309	1	103	4	0.0	37.93199921	22.36599922	2.47399998
         310	1	104	1	0.0	40.92399979	19.70999908	4.40700006
         311	1	104	3	0.0	42.49900055	20.02499962	6.15899992
         312	1	104	4	0.0	41.05899811	18.28899956	3.85800004
         313	1	105	1	0.0	44.27799988	21.54700089	4.6170001
         314	1	105	3	0.0	45.01200104	22.97299957	6.37099981
         315	1	105	4	0.0	45.04800034	22.1439991	3.421
         316	1	106	1	0.0	42.5870018	24.32900047	6.53800011
         317	1	106	3	0.0	41.43399811	24.97900009	8.42700005
         318	1	106	4	0.0	42.04100037	25.56200027	5.7670002
         319	1	107	1	0.0	39.81200027	22.78700066	8.60499954
         320	1	107	3	0.0	39.57099915	22.11100006	10.88500023
         321	1	107	4	0.0	38.57300186	22.1989994	7.96500015
         322	1	108	1	0.0	42.15100098	20.61899948	10.67399979
         323	1	108	3	0.0	41.70299911	18.4829998	9.7670002
         324	1	108	4	0.0	41.44100189	20.36899948	11.98799992

Bond Coeffs

           1	200.0	3.77
           2	200.0	2.41
           3	200.0	2.50
           4	200.0	1.54
           5	200.0	1.54
Bonds

           1	2	1	2
           2	4	1	3
           3	1	1	4
           4	3	2	4
           5	2	4	5
           6	4	4	6
           7	1	4	7
           8	3	5	7
           9	2	7	8
          10	4	7	9
          11	1	7	10
          12	3	8	10
          13	2	10	11
          14	4	10	12
          15	1	10	13
          16	3	11	13
          17	2	13	14
          18	4	13	15
          19	1	13	16
          20	3	14	16
          21	2	16	17
          22	4	16	18
          23	1	16	19
          24	3	17	19
          25	2	19	20
          26	4	19	21
          27	1	19	22
          28	3	20	22
          29	2	22	23
          30	4	22	24
          31	1	22	25
          32	3	23	25
          33	2	25	26
          34	4	25	27
          35	1	25	28
          36	3	26	28
          37	2	28	29
          38	4	28	30
          39	1	28	31
          40	3	29	31
          41	2	31	32
          42	4	31	33
          43	1	31	34
          44	3	32	34
          45	2	34	35
          46	4	34	36
          47	1	34	37
          48	3	35	37
          49	2	37	38
          50	4	37	39
          51	1	37	40
          52	3	38	40
          53	2	40	41
          54	4	40	42
          55	1	40	43
          56	3	41	43
          57	2	43	44
          58	4	43	45
          59	1	43	46
          60	3	44	46
          61	2	46	47
          62	4	46	48
          63	1	46	49
          64	3	47	49
          65	2	49	50
          66	4	49	51
          67	1	49	52
          68	3	50	52
          69	2	52	53
          70	4	52	54
          71	1	52	55
          72	3	53	55
          73	2	55	56
          74	4	55	57
          75	1	55	58
          76	3	56	58
          77	2	58	59
          78	4	58	60
          79	1	58	61
          80	3	59	61
          81	2	61	62
          82	5	61	63
          83	1	61	64
          84	3	62	64
          85	2	64	65
          86	4	64	66
          87	1	64	67
          88	3	65	67
          89	2	67	68
          90	4	67	69
          91	1	67	70
          92	3	68	70
          93	2	70	71
          94	4	70	72
          95	1	70	73
          96	3	71	73
          97	2	73	74
          98	4	73	75
          99	1	73	76
         100	3	74	76
         101	2	76	77
         102	4	76	78
         103	1	76	79
         104	3	77	79
         105	2	79	80
         106	4	79	81
         107	1	79	82
         108	3	80	82
         109	2	82	83
         110	4	82	84
         111	1	82	85
         112	3	83	85
         113	2	85	86
         114	4	85	87
         115	1	85	88
         116	3	86	88
         117	2	88	89
         118	4	88	90
         119	1	88	91
         120	3	89	91
         121	2	91	92
         122	4	91	93
         123	1	91	94
         124	3	92	94
         125	2	94	95
         126	4	94	96
         127	1	94	97
         128	3	95	97
         129	2	97	98
         130	5	97	99
         131	1	97	100
         132	3	98	100
         133	2	100	101
         134	4	100	102
         135	1	100	103
         136	3	101	103
         137	2	103	104
         138	4	103	105
         139	1	103	106
         140	3	104	106
         141	2	106	107
         142	4	106	108
         143	1	106	109
         144	3	107	109
         145	2	109	110
         146	4	109	111
         147	1	109	112
         148	3	110	112
         149	2	112	113
         150	4	112	114
         151	1	112	115
         152	3	113	115
         153	2	115	116
         154	4	115	117
         155	1	115	118
         156	3	116	118
         157	2	118	119
         158	4	118	120
         159	1	118	121
         160	3	119	121
         161	2	121	122
         162	4	121	123
         163	1	121	124
         164	3	122	124
         165	2	124	125
         166	4	124	126
         167	1	124	127
         168	3	125	127
         169	2	127	128
         170	4	127	129
         171	1	127	130
         172	3	128	130
         173	2	130	131
         174	4	130	132
         175	1	130	133
         176	3	131	133
         177	2	133	134
         178	4	133	135
         179	1	133	136
         180	3	134	136
         181	2	136	137
         182	4	136	138
         183	1	136	139
         184	3	137	139
         185	2	139	140
         186	4	139	141
         187	1	139	142
         188	3	140	142
         189	2	142	143
         190	4	142	144
         191	1	142	145
         192	3	143	145
         193	2	145	146
         194	4	145	147
         195	1	145	148
         196	3	146	148
         197	2	148	149
         198	4	148	150
         199	1	148	151
         200	3	149	151
         201	2	151	152
         202	5	151	153
         203	1	151	154
         204	3	152	154
         205	2	154	155
         206	4	154	156
         207	1	154	157
         208	3	155	157
         209	2	157	158
         210	4	157	159
         211	1	157	160
         212	3	158	160
         213	2	160	161
         214	4	160	162
         215	1	160	163
         216	3	161	163
         217	2	163	164
         218	4	163	165
         219	1	163	166
         220	3	164	166
         221	2	166	167
         222	4	166	168
         223	1	166	169
         224	3	167	169
         225	2	169	170
         226	4	169	171
         227	1	169	172
         228	3	170	172
         229	2	172	173
         230	4	172	174
         231	1	172	175
         232	3	173	175
         233	2	175	176
         234	4	175	177
         235	1	175	178
         236	3	176	178
         237	2	178	179
         238	4	178	180
         239	1	178	181
         240	3	179	181
         241	2	181	182
         242	4	181	183
         243	1	181	184
         244	3	182	184
         245	2	184	185
         246	4	184	186
         247	1	184	187
         248	3	185	187
         249	2	187	188
         250	4	187	189
         251	1	187	190
         252	3	188	190
         253	2	190	191
         254	4	190	192
         255	1	190	193
         256	3	191	193
         257	2	193	194
         258	5	193	195
         259	1	193	196
         260	3	194	196
         261	2	196	197
         262	4	196	198
         263	1	196	199
         264	3	197	199
         265	2	199	200
         266	4	199	201
         267	1	199	202
         268	3	200	202
         269	2	202	203
         270	4	202	204
         271	1	202	205
         272	3	203	205
         273	2	205	206
         274	4	205	207
         275	1	205	208
         276	3	206	208
         277	2	208	209
         278	4	208	210
         279	1	208	211
         280	3	209	211
         281	2	211	212
         282	5	211	213
         283	1	211	214
         284	3	212	214
         285	2	214	215
         286	4	214	216
         287	1	214	217
         288	3	215	217
         289	2	217	218
         290	4	217	219
         291	1	217	220
         292	3	218	220
         293	2	220	221
         294	5	220	222
         295	1	220	223
         296	3	221	223
         297	2	223	224
         298	4	223	225
         299	1	223	226
         300	3	224	226
         301	2	226	227
         302	4	226	228
         303	1	226	229
         304	3	227	229
         305	2	229	230
         306	4	229	231
         307	1	229	232
         308	3	230	232
         309	2	232	233
         310	4	232	234
         311	1	232	235
         312	3	233	235
         313	2	235	236
         314	4	235	237
         315	1	235	238
         316	3	236	238
         317	2	238	239
         318	4	238	240
         319	1	238	241
         320	3	239	241
         321	2	241	242
         322	4	241	243
         323	1	241	244
         324	3	242	244
         325	2	244	245
         326	4	244	246
         327	1	244	247
         328	3	245	247
         329	2	247	248
         330	4	247	249
         331	1	247	250
         332	3	248	250
         333	2	250	251
         334	5	250	252
         335	1	250	253
         336	3	251	253
         337	2	253	254
         338	4	253	255
         339	1	253	256
         340	3	254	256
         341	2	256	257
         342	4	256	258
         343	1	256	259
         344	3	257	259
         345	2	259	260
         346	4	259	261
         347	1	259	262
         348	3	260	262
         349	2	262	263
         350	4	262	264
         351	1	262	265
         352	3	263	265
         353	2	265	266
         354	4	265	267
         355	1	265	268
         356	3	266	268
         357	2	268	269
         358	4	268	270
         359	1	268	271
         360	3	269	271
         361	2	271	272
         362	4	271	273
         363	1	271	274
         364	3	272	274
         365	2	274	275
         366	5	274	276
         367	1	274	277
         368	3	275	277
         369	2	277	278
         370	4	277	279
         371	1	277	280
         372	3	278	280
         373	2	280	281
         374	4	280	282
         375	1	280	283
         376	3	281	283
         377	2	283	284
         378	4	283	285
         379	1	283	286
         380	3	284	286
         381	2	286	287
         382	4	286	288
         383	1	286	289
         384	3	287	289
         385	2	289	290
         386	5	289	291
         387	1	289	292
         388	3	290	292
         389	2	292	293
         390	4	292	294
         391	1	292	295
         392	3	293	295
         393	2	295	296
         394	4	295	297
         395	1	295	298
         396	3	296	298
         397	2	298	299
         398	4	298	300
         399	1	298	301
         400	3	299	301
         401	2	301	302
         402	4	301	303
         403	1	301	304
         404	3	302	304
         405	2	304	305
         406	4	304	306
         407	1	304	307
         408	3	305	307
         409	2	307	308
         410	4	307	309
         411	1	307	310
         412	3	308	310
         413	2	310	311
         414	4	310	312
         415	1	310	313
         416	3	311	313
         417	2	313	314
         418	4	313	315
         419	1	313	316
         420	3	314	316
         421	2	316	317
         422	4	316	318
         423	1	316	319
         424	3	317	319
         425	2	319	320
         426	4	319	321
         427	1	319	322
         428	3	320	322
         429	2	322	323
         430	4	322	324

