ITEM: TIMESTEP
0
ITEM: NUMBER OF ATOMS
324
ITEM: BOX BOUNDS ss ss ss
18.399 45.088
14.789 47.592
-17.497 15.243
ITEM: ATOMS id type xs ys zs
1 1 0.120986 0.362834 0.412767
2 3 0.100154 0.405147 0.470495
3 4 0.10184 0.395727 0.381643
4 1 0.0373188 0.345579 0.505437
5 3 0.0509948 0.359297 0.576298
6 4 0.00149874 0.308662 0.508277
7 1 0.14654 0.337958 0.579872
8 3 0.217468 0.370729 0.606811
9 4 0.172618 0.29726 0.587599
10 1 0.220615 0.430419 0.544563
11 3 0.160815 0.483767 0.549298
12 4 0.232043 0.436943 0.497434
13 1 0.212672 0.528489 0.606872
14 3 0.257522 0.564583 0.554673
15 4 0.244483 0.538732 0.646365
16 1 0.180224 0.624059 0.546549
17 3 0.178613 0.674512 0.599114
18 4 0.125595 0.634942 0.53369
19 1 0.268837 0.709448 0.580055
20 3 0.253363 0.750633 0.520861
21 4 0.325977 0.703229 0.583232
22 1 0.264454 0.823644 0.566097
23 3 0.327588 0.831449 0.616341
24 4 0.213346 0.848124 0.572725
25 1 0.356964 0.907539 0.587721
26 3 0.377796 0.916288 0.659438
27 4 0.367267 0.945828 0.562798
28 1 0.283675 0.937353 0.683109
29 3 0.288059 0.907966 0.748717
30 4 0.232455 0.958662 0.684148
31 1 0.265053 0.830199 0.722297
32 3 0.314736 0.779685 0.754795
33 4 0.225411 0.801147 0.707025
34 1 0.400914 0.797001 0.710324
35 3 0.437371 0.756852 0.764417
36 4 0.438345 0.816023 0.680452
37 1 0.445315 0.821846 0.81741
38 3 0.43561 0.764321 0.862401
39 4 0.447675 0.864891 0.836042
40 1 0.333246 0.772826 0.869731
41 3 0.335007 0.701064 0.884239
42 4 0.276931 0.787947 0.86631
43 1 0.329724 0.677713 0.803543
44 3 0.380232 0.617779 0.805284
45 4 0.30492 0.676585 0.760599
46 1 0.467608 0.657684 0.783079
47 3 0.524598 0.636284 0.833751
48 4 0.488891 0.671799 0.74157
49 1 0.550227 0.713777 0.857758
50 3 0.572858 0.686554 0.922908
51 4 0.565289 0.758163 0.854032
52 1 0.475177 0.681158 0.950672
53 3 0.43014 0.624517 0.976451
54 4 0.436097 0.711765 0.967654
55 1 0.448312 0.575131 0.908735
56 3 0.512983 0.551292 0.954062
57 4 0.461801 0.557145 0.866585
58 1 0.459403 0.481725 0.975168
59 3 0.454757 0.435479 0.919609
60 4 0.414066 0.465294 0.998778
61 1 0.544044 0.405147 0.919456
62 3 0.558844 0.460782 0.870648
63 5 0.528757 0.307261 0.892494
64 1 0.604931 0.409384 0.815272
65 3 0.526547 0.400391 0.783201
66 4 0.634606 0.37207 0.800489
67 1 0.538949 0.464928 0.728955
68 3 0.605793 0.494224 0.690715
69 4 0.508487 0.502821 0.743952
70 1 0.576492 0.459197 0.616371
71 3 0.500431 0.482274 0.586591
72 4 0.577729 0.416883 0.596549
73 1 0.541796 0.555072 0.556231
74 3 0.602533 0.557816 0.502444
75 4 0.550414 0.596897 0.576206
76 1 0.529094 0.551231 0.439493
77 3 0.472404 0.605189 0.425535
78 4 0.495335 0.518917 0.421106
79 1 0.546367 0.653996 0.384117
80 3 0.568212 0.62473 0.318968
81 4 0.593166 0.679542 0.391478
82 1 0.478287 0.645338 0.281368
83 3 0.43636 0.710637 0.280666
84 4 0.447975 0.605433 0.282804
85 1 0.405111 0.700485 0.19829
86 3 0.4032 0.64235 0.152108
87 4 0.434486 0.735116 0.180391
88 1 0.312638 0.66494 0.119548
89 3 0.332834 0.629211 0.0581857
90 4 0.25932 0.682011 0.113256
91 1 0.396343 0.69134 0.0297801
92 3 0.467384 0.65927 0.00122175
93 4 0.414365 0.734263 0.0207697
94 1 0.500206 0.624181 0.0742211
95 3 0.46847 0.555651 0.0871717
96 4 0.520514 0.634516 0.117532
97 1 0.506726 0.523825 0.0177764
98 3 0.499756 0.464836 0.0609652
99 5 0.513245 0.441169 0.0200144
100 1 0.596126 0.467763 0.0891876
101 3 0.568924 0.436668 0.151344
102 4 0.65083 0.480384 0.0934026
103 1 0.516617 0.50468 0.178742
104 3 0.459702 0.455782 0.205162
105 4 0.497396 0.547451 0.187263
106 1 0.4026 0.451453 0.134789
107 3 0.392784 0.380576 0.147954
108 4 0.369591 0.466269 0.0989921
109 1 0.481022 0.355913 0.116035
110 3 0.482858 0.300095 0.164447
111 4 0.530069 0.356005 0.0908369
112 1 0.511559 0.343445 0.229505
113 3 0.465548 0.327837 0.289921
114 4 0.557346 0.362437 0.25281
115 1 0.379632 0.367284 0.268632
116 3 0.351156 0.318691 0.319029
117 4 0.339241 0.392739 0.247343
118 1 0.338754 0.255587 0.270098
119 3 0.356664 0.211659 0.326512
120 4 0.336281 0.227755 0.231613
121 1 0.458429 0.223792 0.322908
122 3 0.455394 0.219158 0.394441
123 4 0.513133 0.231017 0.308644
124 1 0.42999 0.300035 0.407666
125 3 0.380569 0.275708 0.464875
126 4 0.426318 0.346372 0.403054
127 1 0.301135 0.251015 0.420831
128 3 0.295965 0.197544 0.469945
129 4 0.260332 0.245832 0.388027
130 1 0.360635 0.146238 0.431124
131 3 0.382967 0.125721 0.499053
132 4 0.395519 0.124959 0.40055
133 1 0.454907 0.18599 0.508644
134 3 0.430027 0.18724 0.578925
135 4 0.496984 0.217938 0.498839
136 1 0.350032 0.239095 0.56854
137 3 0.315786 0.2023 0.626206
138 4 0.31365 0.270738 0.551924
139 1 0.284724 0.136178 0.579872
140 3 0.313987 0.0958156 0.637233
141 4 0.256285 0.114168 0.545632
142 1 0.402188 0.0745981 0.600397
143 3 0.437109 0.0650259 0.666371
144 4 0.445464 0.063776 0.571747
145 1 0.454195 0.147305 0.680452
146 3 0.431938 0.189709 0.736011
147 4 0.49586 0.176357 0.667776
148 1 0.328975 0.175077 0.728253
149 3 0.353854 0.133221 0.786194
150 4 0.279366 0.157639 0.7146
151 1 0.349919 0.192575 0.840562
152 3 0.415827 0.21047 0.884728
153 5 0.335082 0.14007 0.85681
154 1 0.491251 0.212634 0.827337
155 3 0.547716 0.268544 0.814722
156 4 0.526809 0.18032 0.808277
157 1 0.489003 0.299242 0.750305
158 3 0.407396 0.294639 0.726206
159 4 0.518154 0.281469 0.713592
160 1 0.399153 0.382649 0.715486
161 3 0.461538 0.413652 0.673488
162 4 0.380606 0.419322 0.743036
163 1 0.405523 0.413713 0.603665
164 3 0.327401 0.450478 0.602627
165 4 0.400689 0.380972 0.570037
166 1 0.368354 0.52102 0.57135
167 3 0.426468 0.529556 0.517166
168 4 0.37892 0.549554 0.608033
169 1 0.364982 0.586288 0.474801
170 3 0.321293 0.645948 0.496915
171 4 0.329537 0.571686 0.439982
172 1 0.385627 0.698138 0.453054
173 3 0.432163 0.702924 0.391173
174 4 0.422122 0.720026 0.481063
175 1 0.350032 0.738012 0.348045
176 3 0.353554 0.809682 0.365211
177 4 0.294953 0.737402 0.333934
178 1 0.443291 0.822943 0.325871
179 3 0.436997 0.890772 0.305162
180 4 0.499569 0.815475 0.313073
181 1 0.359062 0.878304 0.2489
182 3 0.317771 0.937689 0.275596
183 4 0.330661 0.860074 0.213256
184 1 0.25917 0.891199 0.330147
185 3 0.255873 0.934366 0.38879
186 4 0.22129 0.85794 0.340257
187 1 0.349432 0.90888 0.419884
188 3 0.436322 0.891047 0.416066
189 4 0.344449 0.874341 0.451222
190 1 0.465548 0.963174 0.381735
191 3 0.545281 0.982197 0.405895
192 4 0.456743 0.998781 0.352352
193 1 0.514819 0.996555 0.485767
194 3 0.587546 0.97924 0.522266
195 5 0.484207 0.938186 0.507266
196 1 0.564727 0.897845 0.530269
197 3 0.650905 0.882359 0.532926
198 4 0.534527 0.859251 0.545327
199 1 0.655888 0.854434 0.451161
200 3 0.743677 0.864464 0.46683
201 4 0.643861 0.847575 0.406353
202 1 0.741879 0.947444 0.453696
203 3 0.811121 0.953175 0.498503
204 4 0.722845 0.989361 0.441814
205 1 0.757803 0.937567 0.568204
206 3 0.821462 0.903546 0.603482
207 4 0.718423 0.935219 0.602413
208 1 0.815505 0.832058 0.554612
209 3 0.879089 0.796726 0.515913
210 4 0.777699 0.795781 0.556689
211 1 0.894751 0.863001 0.463409
212 3 0.918506 0.819529 0.407758
213 5 0.857807 0.800564 0.457394
214 1 0.822249 0.793129 0.391692
215 3 0.813369 0.848307 0.347007
216 4 0.766608 0.778893 0.39777
217 1 0.86575 0.809835 0.282957
218 3 0.836674 0.804744 0.214325
219 4 0.923901 0.807701 0.2781
220 1 0.797857 0.726702 0.222541
221 3 0.759976 0.693626 0.280635
222 5 0.822361 0.646858 0.1993
223 1 0.688411 0.652045 0.232651
224 3 0.700214 0.617505 0.168112
225 4 0.636592 0.673994 0.236897
226 1 0.65956 0.572966 0.263409
227 3 0.746263 0.562693 0.280757
228 4 0.637379 0.529617 0.264569
229 1 0.731387 0.588179 0.361881
230 3 0.659972 0.582752 0.404368
231 4 0.756566 0.629211 0.373335
232 1 0.704785 0.521173 0.454826
233 3 0.781108 0.532879 0.492883
234 4 0.704035 0.474683 0.452535
235 1 0.733673 0.564309 0.561087
236 3 0.668777 0.531294 0.598473
237 4 0.721233 0.609 0.572114
238 1 0.73431 0.491267 0.652321
239 3 0.786804 0.526568 0.699756
240 4 0.763798 0.450722 0.65226
241 1 0.706995 0.550011 0.751497
242 3 0.671775 0.491358 0.787874
243 4 0.665106 0.581868 0.754429
244 1 0.726142 0.51032 0.859071
245 3 0.770842 0.566168 0.886286
246 4 0.762561 0.476725 0.868265
247 1 0.712278 0.575161 0.955345
248 3 0.752033 0.639149 0.959041
249 4 0.757615 0.559767 0.980696
250 1 0.693095 0.674482 0.897037
251 3 0.741054 0.724294 0.860324
252 5 0.692682 0.634413 0.878164
253 1 0.807187 0.66683 0.830024
254 3 0.794784 0.60275 0.799267
255 4 0.854359 0.66183 0.856964
256 1 0.845479 0.62287 0.727856
257 3 0.926711 0.60275 0.752688
258 4 0.86028 0.648142 0.690012
259 1 0.906853 0.519648 0.745816
260 3 0.975645 0.489743 0.70843
261 4 0.877478 0.484682 0.764905
262 1 0.930233 0.491572 0.633629
263 3 0.855933 0.518429 0.604887
264 4 0.931695 0.44557 0.633384
265 1 0.894751 0.524495 0.52694
266 3 0.949942 0.48017 0.490318
267 4 0.902507 0.57004 0.51741
268 1 0.885908 0.476299 0.422114
269 3 0.818015 0.511417 0.388668
270 4 0.867136 0.433162 0.423274
271 1 0.875791 0.535013 0.322572
272 3 0.902244 0.48203 0.27642
273 4 0.914571 0.568821 0.313134
274 1 0.8203 0.488249 0.226176
275 3 0.783169 0.434809 0.266433
276 5 0.826933 0.430206 0.206112
277 1 0.741354 0.396306 0.201191
278 3 0.82135 0.360639 0.208461
279 4 0.71595 0.38838 0.160476
280 1 0.774963 0.292017 0.243494
281 3 0.690734 0.267324 0.240898
282 4 0.798044 0.297535 0.28595
283 1 0.721046 0.184832 0.246121
284 3 0.725767 0.191874 0.319273
285 4 0.751621 0.149073 0.228955
286 1 0.648282 0.138281 0.333445
287 3 0.694443 0.127429 0.395602
288 4 0.604818 0.107979 0.330971
289 1 0.7614 0.072891 0.363134
290 3 0.816329 0.0993824 0.413256
291 5 0.721084 0.0012194 0.38666
292 1 0.846941 0.166449 0.366738
293 3 0.849638 0.20172 0.430177
294 4 0.859905 0.193886 0.330849
295 1 0.750721 0.224279 0.429841
296 3 0.762112 0.218518 0.50449
297 4 0.698003 0.237114 0.415944
298 1 0.741729 0.137245 0.506139
299 3 0.798531 0.142061 0.562706
300 4 0.72513 0.093011 0.499633
301 1 0.883135 0.134318 0.517746
302 3 0.920267 0.178156 0.569334
303 4 0.920979 0.126697 0.484301
304 1 0.888081 0.248789 0.532498
305 3 0.882386 0.270129 0.601894
306 4 0.870921 0.280219 0.501313
307 1 0.787253 0.241168 0.615547
308 3 0.818764 0.229309 0.683965
309 4 0.731875 0.230986 0.609988
310 1 0.843981 0.150018 0.669029
311 3 0.902994 0.159621 0.722541
312 4 0.849039 0.106699 0.65226
313 1 0.96965 0.206019 0.675443
314 3 0.997152 0.24949 0.729016
315 4 0.998501 0.224218 0.638913
316 1 0.906291 0.290828 0.734117
317 3 0.86309 0.310643 0.791814
318 4 0.885833 0.328416 0.710568
319 1 0.802316 0.24382 0.797251
320 3 0.793286 0.223212 0.866891
321 4 0.755892 0.225895 0.777703
322 1 0.889955 0.177729 0.860446
323 3 0.873169 0.112613 0.832743
324 4 0.863352 0.170108 0.90058
ITEM: TIMESTEP
1000
ITEM: NUMBER OF ATOMS
324
ITEM: BOX BOUNDS ss ss ss
18.399 45.088
14.789 47.592
-17.497 15.243
ITEM: ATOMS id type xs ys zs
1 1 0.112102 0.356122 0.426772
2 3 0.0598056 0.394 0.473193
3 4 0.0976361 0.387811 0.393108
4 1 0.033376 0.340194 0.520479
5 3 0.0521912 0.362202 0.589181
6 4 0.00209719 0.301157 0.52125
7 1 0.139411 0.333581 0.597904
8 3 0.2098 0.374034 0.619335
9 4 0.166685 0.292399 0.603699
10 1 0.219617 0.420674 0.559992
11 3 0.159284 0.474566 0.575478
12 4 0.232901 0.424356 0.51573
13 1 0.214039 0.521416 0.616887
14 3 0.25383 0.560517 0.560587
15 4 0.241168 0.532984 0.655635
16 1 0.187908 0.615869 0.553579
17 3 0.201387 0.658831 0.612002
18 4 0.136071 0.624071 0.539407
19 1 0.267279 0.705085 0.584998
20 3 0.259818 0.754243 0.532964
21 4 0.325027 0.694273 0.588042
22 1 0.254175 0.818531 0.572863
23 3 0.314035 0.838251 0.622044
24 4 0.204079 0.837186 0.580259
25 1 0.347931 0.901663 0.589147
26 3 0.363653 0.927377 0.656304
27 4 0.354243 0.939898 0.563599
28 1 0.277904 0.932766 0.684475
29 3 0.288832 0.896296 0.746425
30 4 0.229013 0.954729 0.686577
31 1 0.263954 0.825693 0.72687
32 3 0.326237 0.779437 0.754353
33 4 0.226322 0.795458 0.708705
34 1 0.399145 0.795748 0.71326
35 3 0.459044 0.772162 0.765001
36 4 0.433575 0.815904 0.681888
37 1 0.448009 0.823784 0.818319
38 3 0.433551 0.785686 0.879006
39 4 0.452768 0.868377 0.831643
40 1 0.341987 0.770013 0.872404
41 3 0.344967 0.697857 0.881716
42 4 0.285367 0.784205 0.869375
43 1 0.343318 0.674457 0.808994
44 3 0.403417 0.622186 0.813014
45 4 0.316003 0.674431 0.767839
46 1 0.478321 0.660974 0.782516
47 3 0.555699 0.651297 0.821262
48 4 0.495045 0.675267 0.740433
49 1 0.557712 0.718082 0.858652
50 3 0.574403 0.692247 0.926274
51 4 0.568503 0.761519 0.852874
52 1 0.487121 0.686486 0.950591
53 3 0.433601 0.626104 0.962518
54 4 0.44865 0.713093 0.967933
55 1 0.468893 0.579194 0.912804
56 3 0.532648 0.561176 0.965435
57 4 0.486569 0.567126 0.868921
58 1 0.496098 0.490443 0.983016
59 3 0.570204 0.450993 0.992739
60 4 0.450237 0.467176 1.0013
61 1 0.575341 0.421638 0.920464
62 3 0.561029 0.381335 0.863234
63 5 0.550068 0.40244 0.957543
64 1 0.619083 0.410471 0.810675
65 3 0.551746 0.397712 0.764399
66 4 0.63836 0.367433 0.801964
67 1 0.549555 0.468586 0.731806
68 3 0.600942 0.501402 0.683863
69 4 0.520917 0.505077 0.745253
70 1 0.584065 0.461156 0.618774
71 3 0.51128 0.484462 0.581284
72 4 0.591965 0.419621 0.600896
73 1 0.544993 0.552429 0.558283
74 3 0.600077 0.546456 0.499896
75 4 0.553865 0.591965 0.576951
76 1 0.539151 0.558194 0.443532
77 3 0.481288 0.609343 0.427944
78 4 0.515087 0.519518 0.423427
79 1 0.541732 0.652915 0.385117
80 3 0.552632 0.62293 0.320375
81 4 0.5833 0.684437 0.390563
82 1 0.471696 0.641484 0.28486
83 3 0.420745 0.700237 0.274766
84 4 0.438032 0.602913 0.286835
85 1 0.404724 0.698535 0.200474
86 3 0.392312 0.642107 0.154632
87 4 0.437093 0.733076 0.182963
88 1 0.312177 0.659706 0.123164
89 3 0.339582 0.626215 0.0620912
90 4 0.258438 0.675771 0.118466
91 1 0.390384 0.686619 0.0326977
92 3 0.461779 0.654547 0.00818534
93 4 0.399814 0.7299 0.0224397
94 1 0.487851 0.61982 0.0744805
95 3 0.446042 0.556334 0.0635646
96 4 0.502515 0.62505 0.117962
97 1 0.508415 0.522335 0.0193605
98 3 0.514223 0.461734 0.0619452
99 5 0.476148 0.555444 -0.00322173
100 1 0.601378 0.46896 0.0928627
101 3 0.58617 0.454379 0.164882
102 4 0.657296 0.484468 0.0959351
103 1 0.514845 0.501171 0.178536
104 3 0.450479 0.459408 0.201098
105 4 0.507207 0.543161 0.189307
106 1 0.40497 0.444224 0.136843
107 3 0.395188 0.372459 0.133545
108 4 0.377703 0.459791 0.0991853
109 1 0.486936 0.356138 0.121478
110 3 0.498096 0.302154 0.168454
111 4 0.532512 0.355226 0.0951695
112 1 0.520978 0.340316 0.232796
113 3 0.473888 0.33851 0.296185
114 4 0.566521 0.361752 0.250902
115 1 0.390212 0.361379 0.272275
116 3 0.353527 0.312874 0.317064
117 4 0.350985 0.386489 0.248241
118 1 0.354072 0.25062 0.272431
119 3 0.382497 0.200812 0.320854
120 4 0.341016 0.222942 0.235155
121 1 0.471728 0.222558 0.329862
122 3 0.471574 0.225873 0.404957
123 4 0.522523 0.23016 0.312337
124 1 0.439 0.298082 0.413579
125 3 0.37907 0.281115 0.466904
126 4 0.433825 0.342632 0.404752
127 1 0.315085 0.243512 0.424128
128 3 0.30741 0.18189 0.462637
129 4 0.274911 0.239301 0.391937
130 1 0.380352 0.141707 0.437103
131 3 0.415491 0.123771 0.499968
132 4 0.406817 0.119779 0.401843
133 1 0.470225 0.18565 0.512571
134 3 0.445601 0.195677 0.583832
135 4 0.509702 0.216034 0.502043
136 1 0.362149 0.231077 0.569817
137 3 0.316969 0.196704 0.623547
138 4 0.325634 0.263421 0.551642
139 1 0.303511 0.129092 0.584558
140 3 0.333321 0.0729419 0.626065
141 4 0.271087 0.108184 0.549034
142 1 0.425429 0.0724736 0.609075
143 3 0.46056 0.072656 0.67723
144 4 0.46669 0.0631211 0.576807
145 1 0.471772 0.147886 0.685802
146 3 0.437303 0.191082 0.735624
147 4 0.511685 0.178701 0.672978
148 1 0.346007 0.171105 0.732802
149 3 0.356381 0.133375 0.794512
150 4 0.301135 0.150415 0.715968
151 1 0.362147 0.192679 0.84398
152 3 0.427832 0.228685 0.879202
153 5 0.355124 0.164203 0.807322
154 1 0.501068 0.217785 0.830262
155 3 0.546974 0.278159 0.81712
156 4 0.536199 0.182783 0.815351
157 1 0.496938 0.301846 0.75496
158 3 0.419665 0.305081 0.719701
159 4 0.528466 0.284551 0.718516
160 1 0.407125 0.3822 0.716355
161 3 0.459843 0.421425 0.670123
162 4 0.391196 0.416568 0.745522
163 1 0.411077 0.411366 0.604186
164 3 0.33987 0.457139 0.60555
165 4 0.407834 0.379016 0.572342
166 1 0.374907 0.518245 0.570476
167 3 0.422615 0.532736 0.510509
168 4 0.387893 0.547854 0.605331
169 1 0.365825 0.580465 0.47186
170 3 0.328147 0.644216 0.490238
171 4 0.327268 0.564822 0.44056
172 1 0.382966 0.692931 0.448747
173 3 0.42306 0.700605 0.381927
174 4 0.420467 0.714167 0.476574
175 1 0.350216 0.729065 0.341839
176 3 0.355572 0.800647 0.343834
177 4 0.295655 0.726099 0.32476
178 1 0.441636 0.813383 0.316338
179 3 0.428565 0.877873 0.288606
180 4 0.493434 0.803105 0.302035
181 1 0.356934 0.862905 0.239499
182 3 0.300178 0.919212 0.265124
183 4 0.336646 0.845079 0.20197
184 1 0.257088 0.880554 0.321212
185 3 0.261097 0.918133 0.385074
186 4 0.21976 0.848391 0.330024
187 1 0.349525 0.902856 0.407653
188 3 0.440529 0.895085 0.412818
189 4 0.342069 0.868769 0.440608
190 1 0.468523 0.956042 0.369114
191 3 0.547157 0.96489 0.402191
192 4 0.457464 0.989156 0.337074
193 1 0.52314 0.989626 0.469714
194 3 0.568832 0.966444 0.528844
195 5 0.568257 1.01379 0.489849
196 1 0.561544 0.892606 0.522118
197 3 0.644984 0.866348 0.516305
198 4 0.52951 0.860542 0.536808
199 1 0.650519 0.853639 0.440633
200 3 0.741673 0.872387 0.442097
201 4 0.639289 0.848022 0.394633
202 1 0.735631 0.946587 0.448566
203 3 0.806876 0.947805 0.494414
204 4 0.717409 0.986539 0.435311
205 1 0.759143 0.934407 0.561296
206 3 0.810072 0.884695 0.594706
207 4 0.714251 0.935101 0.589638
208 1 0.808055 0.825914 0.547739
209 3 0.890789 0.813271 0.522331
210 4 0.777468 0.788588 0.543815
211 1 0.893879 0.854763 0.459436
212 3 0.912881 0.808527 0.401635
213 5 0.933593 0.884088 0.444639
214 1 0.824425 0.78655 0.384908
215 3 0.812059 0.833417 0.331355
216 4 0.77497 0.773647 0.399385
217 1 0.869738 0.799156 0.276442
218 3 0.85137 0.777075 0.209737
219 4 0.922669 0.810282 0.276294
220 1 0.799581 0.716071 0.218597
221 3 0.73044 0.715737 0.262635
222 5 0.780172 0.683876 0.190186
223 1 0.669416 0.672941 0.217051
224 3 0.667803 0.606298 0.19188
225 4 0.632711 0.688742 0.184415
226 1 0.664261 0.569769 0.260542
227 3 0.717099 0.52597 0.30104
228 4 0.68277 0.545521 0.221671
229 1 0.747207 0.575742 0.355641
230 3 0.674536 0.565293 0.40054
231 4 0.765601 0.618806 0.366769
232 1 0.711455 0.518691 0.451919
233 3 0.783525 0.528198 0.494576
234 4 0.708063 0.473627 0.448712
235 1 0.740156 0.556211 0.558584
236 3 0.686451 0.533096 0.61083
237 4 0.730468 0.603038 0.567594
238 1 0.739766 0.489431 0.653472
239 3 0.783229 0.530964 0.702124
240 4 0.764324 0.447746 0.652643
241 1 0.714386 0.544941 0.749388
242 3 0.682912 0.489111 0.793791
243 4 0.673885 0.576804 0.751204
244 1 0.726862 0.509688 0.857882
245 3 0.770971 0.559578 0.897153
246 4 0.762551 0.475193 0.865499
247 1 0.718242 0.572189 0.954047
248 3 0.75041 0.642568 0.958245
249 4 0.762255 0.558638 0.979239
250 1 0.702874 0.672446 0.895025
251 3 0.767544 0.713957 0.866561
252 5 0.727266 0.629802 0.894941
253 1 0.813677 0.661277 0.827334
254 3 0.800856 0.601892 0.786044
255 4 0.859183 0.658067 0.853723
256 1 0.850323 0.619641 0.72542
257 3 0.930898 0.590072 0.739012
258 4 0.864743 0.644159 0.688397
259 1 0.909512 0.517468 0.742664
260 3 0.971877 0.484987 0.700529
261 4 0.882492 0.48444 0.762747
262 1 0.931674 0.48123 0.633932
263 3 0.85864 0.50212 0.596412
264 4 0.933362 0.435694 0.634041
265 1 0.898064 0.515226 0.527301
266 3 0.950105 0.477838 0.481891
267 4 0.904631 0.560643 0.519968
268 1 0.887317 0.466491 0.423138
269 3 0.831946 0.506285 0.383064
270 4 0.87093 0.422904 0.423201
271 1 0.889581 0.523991 0.324387
272 3 0.908344 0.468146 0.278977
273 4 0.929882 0.557429 0.315083
274 1 0.840825 0.479936 0.22673
275 3 0.780955 0.437962 0.261283
276 5 0.783621 0.473097 0.215061
277 1 0.7535 0.393455 0.201736
278 3 0.819834 0.346889 0.215194
279 4 0.739014 0.383296 0.155415
280 1 0.775221 0.288533 0.243914
281 3 0.702445 0.252653 0.220033
282 4 0.785586 0.293093 0.289697
283 1 0.726536 0.182337 0.246421
284 3 0.720398 0.177705 0.320521
285 4 0.747905 0.145779 0.228967
286 1 0.641274 0.139152 0.327508
287 3 0.671742 0.113235 0.392673
288 4 0.595158 0.111777 0.320841
289 1 0.739315 0.0678501 0.363883
290 3 0.795144 0.0953019 0.41142
291 5 0.757455 0.110488 0.34905
292 1 0.823125 0.158052 0.375457
293 3 0.822852 0.207896 0.431305
294 4 0.844877 0.183063 0.338166
295 1 0.728266 0.223428 0.429218
296 3 0.719325 0.215073 0.50226
297 4 0.680941 0.240316 0.409123
298 1 0.706658 0.13976 0.506762
299 3 0.757635 0.130605 0.56307
300 4 0.689207 0.0950043 0.497647
301 1 0.844777 0.131476 0.529128
302 3 0.880535 0.17774 0.576425
303 4 0.881922 0.11816 0.499293
304 1 0.855562 0.245754 0.544471
305 3 0.831316 0.27687 0.60848
306 4 0.848414 0.274725 0.508909
307 1 0.748346 0.243191 0.61594
308 3 0.757918 0.221895 0.684916
309 4 0.693027 0.23696 0.605953
310 1 0.793915 0.152882 0.676399
311 3 0.850568 0.16545 0.729977
312 4 0.801808 0.111224 0.659179
313 1 0.918323 0.204272 0.693932
314 3 0.9344 0.253039 0.745318
315 4 0.94938 0.218934 0.657243
316 1 0.856852 0.294642 0.742375
317 3 0.809668 0.306369 0.801721
318 4 0.8382 0.32996 0.715631
319 1 0.746559 0.249528 0.797319
320 3 0.741353 0.229552 0.864983
321 4 0.702311 0.227492 0.775771
322 1 0.817744 0.185622 0.868115
323 3 0.807774 0.119368 0.89915
324 4 0.781681 0.178681 0.905989
