LAMMPS protain data file

         228  atoms
         302  bonds
           0  angles
           0  dihedrals
           0  impropers

           5  atom types
           5  bond types
           0  angle types
           0  dihedral types
           0  improper types

-200.0	200.0	xlo xhi
-200.0	200.0	ylo yhi
-200.0	200.0	zlo zhi

Masses

           1	27.0
           2	14.0
           3	28.0
           4	60.0
           5	60.0

Atoms

           1	1	1	1	0.0	26.26600075	25.41300011	2.84200001
           2	1	1	3	0.0	27.88599968	26.46299934	4.26300001
           3	1	1	4	0.0	25.11199951	24.87999916	3.64899993
           4	1	2	1	0.0	26.85000038	29.02099991	3.898
           5	1	2	3	0.0	24.86499977	29.02400017	5.32999992
           6	1	2	4	0.0	26.7329998	30.14800072	2.90499997
           7	1	3	1	0.0	26.23500061	30.05800056	7.49700022
           8	1	3	3	0.0	27.90600014	31.71100044	7.26399994
           9	1	3	4	0.0	26.34399986	29.04999924	8.64500046
          10	1	4	1	0.0	26.77199936	33.43600082	9.19699955
          11	1	4	3	0.0	26.35000038	32.77799988	11.39500046
          12	1	4	4	0.0	25.69499969	34.4980011	8.9460001
          13	1	5	1	0.0	28.60499954	33.96500015	12.50300026
          14	1	5	3	0.0	29.52199936	36.10300064	12.31999969
          15	1	5	4	0.0	29.96299934	33.31700134	12.81400013
          16	1	6	1	0.0	27.69099998	37.31499863	14.14299965
          17	1	6	3	0.0	28.21299934	36.75299835	16.4109993
          18	1	6	4	0.0	26.21899986	37.68399811	14.30700016
          19	1	7	1	0.0	30.22500038	38.64300156	16.66200066
          20	1	7	3	0.0	28.85000038	40.56499863	16.85899925
          21	1	7	4	0.0	31.74399948	38.87900162	16.29899979
          22	1	8	1	0.0	29.60700035	41.18000031	19.46699905
          23	1	8	3	0.0	29.58600044	43.56999969	19.4829998
          24	1	8	4	0.0	29.91900063	40.88999939	20.93799973
          25	1	9	1	0.0	31.42200089	43.93999863	17.5529995
          26	1	9	3	0.0	31.20700073	45.26800156	15.56599998
          27	1	9	4	0.0	32.97900009	43.91799927	17.44499969
          28	1	10	1	0.0	28.97800064	43.95999908	14.67800045
          29	1	10	3	0.0	29.21899986	43.98099899	12.30099964
          30	1	10	5	0.0	29.72100067	41.71623416	13.39873511
          31	1	11	1	0.0	31.19099998	42.01200104	12.33100033
          32	1	11	3	0.0	30.25300026	39.99100113	13.13300037
          33	1	11	4	0.0	32.67200089	41.71699905	12.50500011
          34	1	12	1	0.0	29.54199982	39.02000046	10.65299988
          35	1	12	3	0.0	30.84900093	38.84999847	8.70600033
          36	1	12	4	0.0	28.11300087	39.04899979	10.01500034
          37	1	13	1	0.0	31.71999931	36.28900146	9.17599964
          38	1	13	3	0.0	30.02499962	34.61800003	9.03999996
          39	1	13	4	0.0	32.99499893	35.88299942	9.93400002
          40	1	14	1	0.0	30.50499916	33.88399887	6.51200008
          41	1	14	3	0.0	32.61899948	32.81200027	6.125
          42	1	14	4	0.0	30.0909996	34.39300156	5.07800007
          43	1	15	1	0.0	31.67700005	30.27499962	6.63899994
          44	1	15	3	0.0	29.80900002	29.39500046	5.54500008
          45	1	15	4	0.0	31.56200027	29.68600082	8.04500008
          46	1	16	1	0.0	31.21999931	27.3409996	4.2750001
          47	1	16	3	0.0	32.57600021	25.80200005	5.46099997
          48	1	16	4	0.0	31.82699966	27.26199913	2.89400005
          49	1	17	1	0.0	30.28800011	24.24500084	6.19299984
          50	1	17	3	0.0	28.47800064	23.52199936	4.7249999
          51	1	17	4	0.0	29.90299988	24.59000015	7.66499996
          52	1	18	1	0.0	28.46800041	20.94000053	5.98000002
          53	1	18	3	0.0	28.4489994	20.67399979	8.35999966
          54	1	18	4	0.0	29.21299934	19.6970005	5.50600004
          55	1	19	1	0.0	25.82900047	19.82500076	8.49400043
          56	1	19	3	0.0	26.33300018	18.5359993	10.45699978
          57	1	19	4	0.0	24.46899986	19.33200073	7.95200014
          58	1	20	1	0.0	28.05400085	16.83499908	9.21000004
          59	1	20	3	0.0	29.93000031	16.47699928	10.60599995
          60	1	20	4	0.0	28.52300072	15.81999969	8.18200016
          61	1	21	1	0.0	30.79599953	19.08300018	10.56599998
          62	1	21	3	0.0	29.36700058	19.52300072	12.44099998
          63	1	21	4	0.0	31.15500069	20.51499939	10.04800034
          64	1	22	1	0.0	31.39800072	19.06399918	14.28600025
          65	1	22	3	0.0	32.1590004	21.31100082	13.86100006
          66	1	22	4	0.0	32.49200058	18.19300079	14.99499989
          67	1	23	1	0.0	31.28800011	22.20100021	16.41699982
          68	1	23	3	0.0	33.23300171	23.6590004	16.38400078
          69	1	23	4	0.0	30.52000046	22.29999924	17.76399994
          70	1	24	1	0.0	35.03099823	21.72200012	17.06900024
          71	1	24	3	0.0	36.5320015	23.04599953	15.72399998
          72	1	24	4	0.0	35.66699982	20.38299942	17.4470005
          73	1	25	1	0.0	35.59000015	21.94499969	13.30200005
          74	1	25	3	0.0	36.06600189	24.10899925	12.33300018
          75	1	25	4	0.0	35.06399918	20.95700073	12.25500011
          76	1	26	1	0.0	33.53300095	25.09700012	12.97799969
          77	1	26	3	0.0	34.88299942	27.09000015	13.09300041
          78	1	26	4	0.0	32.06000137	25.25699997	13.36400032
          79	1	27	1	0.0	35.59600067	26.71500015	15.73600006
          80	1	27	3	0.0	37.57899857	27.9260006	15.1590004
          81	1	27	4	0.0	35.71500015	26.20299911	17.17200089
          82	1	28	1	0.0	38.79399872	25.76099968	13.88000011
          83	1	28	3	0.0	39.70399857	27.34600067	12.27700043
          84	1	28	4	0.0	39.28499985	24.33600044	13.56599998
          85	1	29	1	0.0	37.47100067	27.39100075	10.66800022
          86	1	29	3	0.0	38.02000046	29.77199936	10.38199997
          87	1	29	4	0.0	36.19300079	27.05800056	9.91100025
          88	1	30	1	0.0	36.73099899	30.56999969	12.64500046
          89	1	30	3	0.0	38.54399872	32.15000153	12.85599995
          90	1	30	4	0.0	35.70800018	30.77599907	13.80599976
          91	1	31	1	0.0	40.26900101	30.50799942	14.11499977
          92	1	31	3	0.0	41.82799911	31.80800056	12.68099976
          93	1	31	4	0.0	40.99599838	29.39900017	14.86499977
          94	1	32	1	0.0	41.7179985	30.02199936	10.64299965
          95	1	32	3	0.0	42.25999832	32.0359993	9.38099957
          96	1	32	4	0.0	41.39799881	28.78000069	9.81000042
          97	1	33	1	0.0	39.80799866	32.99399948	9.2329998
          98	1	33	3	0.0	40.16400146	35.32300186	9.34500027
          99	1	33	4	0.0	38.61500168	32.80099869	8.31999969
         100	1	34	1	0.0	39.67599869	35.54700089	12.07199955
         101	1	34	3	0.0	40.81399918	36.52799988	13.91100025
         102	1	34	4	0.0	38.29000092	35.81399918	12.69799995
         103	1	35	1	0.0	42.34500122	34.26900101	14.43099976
         104	1	35	3	0.0	42.82899857	34.0	16.73900032
         105	1	35	5	0.0	41.31700134	32.09131674	13.58340395
         106	1	36	1	0.0	40.22600174	33.7159996	17.50900078
         107	1	36	3	0.0	39.93600082	31.33600044	17.31500053
         108	1	36	4	0.0	38.69300079	34.10599899	17.59499931
         109	1	37	1	0.0	41.46099854	30.75099945	19.59399986
         110	1	37	3	0.0	39.26399994	30.66200066	20.52099991
         111	1	37	4	0.0	42.19499969	31.1420002	20.91300011
         112	1	38	1	0.0	38.81700134	28.02000046	19.88899994
         113	1	38	3	0.0	37.21300125	28.0359993	21.70400047
         114	1	38	4	0.0	39.09000015	26.62899971	19.32500076
         115	1	39	1	0.0	39.06299973	28.06299973	23.69499969
         116	1	39	3	0.0	37.68399811	29.38999939	25.22100067
         117	1	39	4	0.0	40.34000015	27.69199944	24.46800041
         118	1	40	1	0.0	37.73799896	31.63699913	23.71199989
         119	1	40	3	0.0	35.57400131	32.61800003	23.4829998
         120	1	40	4	0.0	38.52799988	32.85400009	23.18199921
         121	1	41	1	0.0	34.73799896	30.875	21.47299957
         122	1	41	3	0.0	33.58000183	29.00900078	22.49900055
         123	1	41	4	0.0	34.87599945	30.23699951	20.06599998
         124	1	42	1	0.0	31.20000076	30.32900047	22.78000069
         125	1	42	3	0.0	29.97800064	31.72599983	21.2689991
         126	1	42	4	0.0	30.84700012	30.93099976	24.11800003
         127	1	43	1	0.0	28.76199913	29.57299995	19.90600014
         128	1	43	3	0.0	27.10099983	28.34600067	21.09700012
         129	1	43	4	0.0	29.15099907	28.65500069	18.75499916
         130	1	44	1	0.0	25.0340004	30.17000008	20.40099907
         131	1	44	3	0.0	24.19599915	30.94799995	18.28700066
         132	1	44	4	0.0	24.63899994	31.4260006	21.2859993
         133	1	45	1	0.0	22.12599945	29.06200027	18.18300056
         134	1	45	3	0.0	20.82099915	27.73399925	19.74900055
         135	1	45	4	0.0	22.49399948	28.05699921	17.10899925
         136	1	46	1	0.0	18.44300079	29.14299965	19.08300018
         137	1	46	3	0.0	17.86000061	27.99399948	21.12800026
         138	1	46	4	0.0	17.86400032	27.97699928	18.34600067
         139	1	47	1	0.0	19.39900017	29.8939991	22.65500069
         140	1	47	3	0.0	19.99099922	28.58399963	24.56100082
         141	1	47	5	0.0	19.17200089	28.79646261	22.13743275
         142	1	48	1	0.0	21.54999924	26.79599953	23.13299942
         143	1	48	3	0.0	23.38299942	27.62700081	21.87000084
         144	1	48	4	0.0	21.24200058	25.5189991	22.39100075
         145	1	49	1	0.0	25.34900093	26.87199974	23.64299965
         146	1	49	3	0.0	25.32500076	24.48900032	23.37800026
         147	1	49	4	0.0	26.06999969	27.02499962	24.95999908
         148	1	50	1	0.0	26.82600021	24.52099991	21.01199913
         149	1	50	3	0.0	28.90399933	24.44400024	22.09799957
         150	1	50	4	0.0	27.04299927	24.99200058	19.57099915
         151	1	51	1	0.0	29.01499939	21.65699959	22.28800011
         152	1	51	3	0.0	29.46999931	20.67700005	20.19000053
         153	1	51	4	0.0	28.34799957	20.54000092	23.06599998
         154	1	52	1	0.0	32.26200104	20.67000008	20.51399994
         155	1	52	3	0.0	32.54600143	19.31699944	18.55800056
         156	1	52	4	0.0	33.63800049	20.7159996	21.24200058
         157	1	53	1	0.0	31.56800079	16.96199989	19.82500076
         158	1	53	3	0.0	30.19799995	15.65699959	18.36599922
         159	1	53	5	0.0	31.6970005	14.76958208	18.49395434
         160	1	54	1	0.0	28.1079998	17.43899918	18.27599907
         161	1	54	3	0.0	29.32600021	18.7859993	16.69000053
         162	1	54	4	0.0	26.9260006	18.19099998	18.8920002
         163	1	55	1	0.0	27.5739994	18.19199944	14.56299973
         164	1	55	3	0.0	25.60899925	19.38800049	15.2869997
         165	1	55	4	0.0	27.29899979	17.05500031	13.53299999
         166	1	56	1	0.0	25.59399986	21.10899925	13.07199955
         167	1	56	3	0.0	23.26399994	20.95100021	13.32900047
         168	1	56	4	0.0	26.08399963	21.88800049	11.83300018
         169	1	57	1	0.0	22.92399979	18.58300018	12.02499962
         170	1	57	3	0.0	20.96299934	18.25300026	13.39500046
         171	1	57	4	0.0	23.05900002	17.32600021	11.15400028
         172	1	58	1	0.0	22.41799927	17.63800049	15.69299984
         173	1	58	3	0.0	20.49699974	18.50600052	16.89999962
         174	1	58	4	0.0	23.46100044	17.33099937	16.74099922
         175	1	59	1	0.0	21.07900047	21.14900017	16.25099945
         176	1	59	3	0.0	19.49900055	22.64500046	15.3210001
         177	1	59	4	0.0	22.08499908	22.25399971	16.58099937
         178	1	60	1	0.0	19.06500053	21.35199928	12.9989996
         179	1	60	3	0.0	18.57099915	23.61000061	12.28899956
         180	1	60	4	0.0	17.58600044	21.28199959	13.46100044
         181	1	61	1	0.0	21.18400002	24.26300049	11.68999958
         182	1	61	3	0.0	21.8409996	23.19799995	9.68599987
         183	1	61	4	0.0	22.64999962	24.51600075	12.17199993
         184	1	62	1	0.0	20.08099937	24.77300072	8.03299999
         185	1	62	3	0.0	21.32299995	26.82999992	8.00800037
         186	1	62	4	0.0	18.59900093	24.73600006	7.72700024
         187	1	63	1	0.0	21.65600014	26.84700012	5.23999977
         188	1	63	3	0.0	19.95800018	28.46500015	5.84200001
         189	1	63	4	0.0	21.63100052	26.6420002	3.73099995
         190	1	64	1	0.0	21.90699959	30.56299973	5.88100004
         191	1	64	3	0.0	21.06599998	32.11199951	7.53299999
         192	1	64	4	0.0	21.02300072	31.22299957	4.78399992
         193	1	65	1	0.0	21.41900063	30.25300026	9.61999989
         194	1	65	3	0.0	23.57900047	31.32099915	9.5539999
         195	1	65	4	0.0	21.63699913	28.92300034	10.35299969
         196	1	66	1	0.0	23.21199989	32.76200104	11.89099979
         197	1	66	3	0.0	22.54400063	31.94199944	14.0340004
         198	1	66	4	0.0	22.6989994	34.26699829	11.98499966
         199	1	67	1	0.0	25.14900017	31.60899925	14.97999954
         200	1	67	3	0.0	26.15800095	33.72999954	14.89400005
         201	1	67	4	0.0	26.30999947	30.59399986	14.96700001
         202	1	68	1	0.0	26.17900085	34.1269989	17.64999962
         203	1	68	3	0.0	27.50699997	32.5870018	18.95800018
         204	1	68	4	0.0	25.2140007	34.56499863	18.78000069
         205	1	69	1	0.0	29.8010006	34.14500046	18.82900047
         206	1	69	3	0.0	30.10499954	36.30500031	19.78800011
         207	1	69	4	0.0	30.92499924	34.30400085	17.75300026
         208	1	70	1	0.0	30.47900009	35.36899948	22.37400055
         209	1	70	3	0.0	32.18999863	33.69599915	22.63500023
         210	1	70	4	0.0	29.47200012	35.18099976	23.49799919
         211	1	71	1	0.0	34.14500046	35.47200012	23.4810009
         212	1	71	3	0.0	33.70700073	36.1969986	25.72800064
         213	1	71	4	0.0	35.11399841	36.56399918	22.90699959
         214	1	72	1	0.0	35.1609993	34.17399979	26.89599991
         215	1	72	3	0.0	37.30500031	33.23300171	26.79500008
         216	1	72	4	0.0	34.71699905	32.75999832	27.2859993
         217	1	73	1	0.0	38.66799927	35.5019989	27.68000031
         218	1	73	3	0.0	38.29700089	34.94599915	29.99600029
         219	1	73	4	0.0	39.08000183	36.94100189	27.40600014
         220	1	74	1	0.0	40.8730011	33.80199814	30.25300026
         221	1	74	3	0.0	42.94499969	34.99399948	30.58300018
         222	1	74	4	0.0	41.65100098	32.52899933	29.92300034
         223	1	75	1	0.0	41.84500122	36.54999924	32.68600082
         224	1	75	3	0.0	41.10200119	38.52299881	31.5
         225	1	75	5	0.0	41.16500092	34.32664583	31.41351538
         226	1	76	1	0.0	40.3730011	39.81299973	33.94400024
         227	1	76	3	0.0	38.93299866	40.52500153	35.68700027
         228	1	76	5	0.0	40.94599915	38.43883312	31.03855792

Bond Coeffs

           1	200.0	3.77
           2	200.0	2.41
           3	200.0	2.50
           4	200.0	1.54
           5	200.0	1.54
Bonds

           1	2	1	2
           2	4	1	3
           3	1	1	4
           4	3	2	4
           5	2	4	5
           6	4	4	6
           7	1	4	7
           8	3	5	7
           9	2	7	8
          10	4	7	9
          11	1	7	10
          12	3	8	10
          13	2	10	11
          14	4	10	12
          15	1	10	13
          16	3	11	13
          17	2	13	14
          18	4	13	15
          19	1	13	16
          20	3	14	16
          21	2	16	17
          22	4	16	18
          23	1	16	19
          24	3	17	19
          25	2	19	20
          26	4	19	21
          27	1	19	22
          28	3	20	22
          29	2	22	23
          30	4	22	24
          31	1	22	25
          32	3	23	25
          33	2	25	26
          34	4	25	27
          35	1	25	28
          36	3	26	28
          37	2	28	29
          38	5	28	30
          39	1	28	31
          40	3	29	31
          41	2	31	32
          42	4	31	33
          43	1	31	34
          44	3	32	34
          45	2	34	35
          46	4	34	36
          47	1	34	37
          48	3	35	37
          49	2	37	38
          50	4	37	39
          51	1	37	40
          52	3	38	40
          53	2	40	41
          54	4	40	42
          55	1	40	43
          56	3	41	43
          57	2	43	44
          58	4	43	45
          59	1	43	46
          60	3	44	46
          61	2	46	47
          62	4	46	48
          63	1	46	49
          64	3	47	49
          65	2	49	50
          66	4	49	51
          67	1	49	52
          68	3	50	52
          69	2	52	53
          70	4	52	54
          71	1	52	55
          72	3	53	55
          73	2	55	56
          74	4	55	57
          75	1	55	58
          76	3	56	58
          77	2	58	59
          78	4	58	60
          79	1	58	61
          80	3	59	61
          81	2	61	62
          82	4	61	63
          83	1	61	64
          84	3	62	64
          85	2	64	65
          86	4	64	66
          87	1	64	67
          88	3	65	67
          89	2	67	68
          90	4	67	69
          91	1	67	70
          92	3	68	70
          93	2	70	71
          94	4	70	72
          95	1	70	73
          96	3	71	73
          97	2	73	74
          98	4	73	75
          99	1	73	76
         100	3	74	76
         101	2	76	77
         102	4	76	78
         103	1	76	79
         104	3	77	79
         105	2	79	80
         106	4	79	81
         107	1	79	82
         108	3	80	82
         109	2	82	83
         110	4	82	84
         111	1	82	85
         112	3	83	85
         113	2	85	86
         114	4	85	87
         115	1	85	88
         116	3	86	88
         117	2	88	89
         118	4	88	90
         119	1	88	91
         120	3	89	91
         121	2	91	92
         122	4	91	93
         123	1	91	94
         124	3	92	94
         125	2	94	95
         126	4	94	96
         127	1	94	97
         128	3	95	97
         129	2	97	98
         130	4	97	99
         131	1	97	100
         132	3	98	100
         133	2	100	101
         134	4	100	102
         135	1	100	103
         136	3	101	103
         137	2	103	104
         138	5	103	105
         139	1	103	106
         140	3	104	106
         141	2	106	107
         142	4	106	108
         143	1	106	109
         144	3	107	109
         145	2	109	110
         146	4	109	111
         147	1	109	112
         148	3	110	112
         149	2	112	113
         150	4	112	114
         151	1	112	115
         152	3	113	115
         153	2	115	116
         154	4	115	117
         155	1	115	118
         156	3	116	118
         157	2	118	119
         158	4	118	120
         159	1	118	121
         160	3	119	121
         161	2	121	122
         162	4	121	123
         163	1	121	124
         164	3	122	124
         165	2	124	125
         166	4	124	126
         167	1	124	127
         168	3	125	127
         169	2	127	128
         170	4	127	129
         171	1	127	130
         172	3	128	130
         173	2	130	131
         174	4	130	132
         175	1	130	133
         176	3	131	133
         177	2	133	134
         178	4	133	135
         179	1	133	136
         180	3	134	136
         181	2	136	137
         182	4	136	138
         183	1	136	139
         184	3	137	139
         185	2	139	140
         186	5	139	141
         187	1	139	142
         188	3	140	142
         189	2	142	143
         190	4	142	144
         191	1	142	145
         192	3	143	145
         193	2	145	146
         194	4	145	147
         195	1	145	148
         196	3	146	148
         197	2	148	149
         198	4	148	150
         199	1	148	151
         200	3	149	151
         201	2	151	152
         202	4	151	153
         203	1	151	154
         204	3	152	154
         205	2	154	155
         206	4	154	156
         207	1	154	157
         208	3	155	157
         209	2	157	158
         210	5	157	159
         211	1	157	160
         212	3	158	160
         213	2	160	161
         214	4	160	162
         215	1	160	163
         216	3	161	163
         217	2	163	164
         218	4	163	165
         219	1	163	166
         220	3	164	166
         221	2	166	167
         222	4	166	168
         223	1	166	169
         224	3	167	169
         225	2	169	170
         226	4	169	171
         227	1	169	172
         228	3	170	172
         229	2	172	173
         230	4	172	174
         231	1	172	175
         232	3	173	175
         233	2	175	176
         234	4	175	177
         235	1	175	178
         236	3	176	178
         237	2	178	179
         238	4	178	180
         239	1	178	181
         240	3	179	181
         241	2	181	182
         242	4	181	183
         243	1	181	184
         244	3	182	184
         245	2	184	185
         246	4	184	186
         247	1	184	187
         248	3	185	187
         249	2	187	188
         250	4	187	189
         251	1	187	190
         252	3	188	190
         253	2	190	191
         254	4	190	192
         255	1	190	193
         256	3	191	193
         257	2	193	194
         258	4	193	195
         259	1	193	196
         260	3	194	196
         261	2	196	197
         262	4	196	198
         263	1	196	199
         264	3	197	199
         265	2	199	200
         266	4	199	201
         267	1	199	202
         268	3	200	202
         269	2	202	203
         270	4	202	204
         271	1	202	205
         272	3	203	205
         273	2	205	206
         274	4	205	207
         275	1	205	208
         276	3	206	208
         277	2	208	209
         278	4	208	210
         279	1	208	211
         280	3	209	211
         281	2	211	212
         282	4	211	213
         283	1	211	214
         284	3	212	214
         285	2	214	215
         286	4	214	216
         287	1	214	217
         288	3	215	217
         289	2	217	218
         290	4	217	219
         291	1	217	220
         292	3	218	220
         293	2	220	221
         294	4	220	222
         295	1	220	223
         296	3	221	223
         297	2	223	224
         298	5	223	225
         299	1	223	226
         300	3	224	226
         301	2	226	227
         302	5	226	228

