ITEM: TIMESTEP
0
ITEM: NUMBER OF ATOMS
228
ITEM: BOX BOUNDS ss ss ss
17.546 42.985
14.7296 45.308
2.802 35.727
ITEM: ATOMS id type xs ys zs
1 1 0.342781 0.349378 0.00121488
2 3 0.406463 0.383716 0.0443736
3 4 0.297417 0.331947 0.0257251
4 1 0.365738 0.467369 0.0332878
5 3 0.287708 0.467468 0.0767806
6 4 0.361138 0.504225 0.00312832
7 1 0.341562 0.501282 0.142597
8 3 0.407249 0.55534 0.13552
9 4 0.345847 0.468318 0.177464
10 1 0.362671 0.611752 0.194229
11 3 0.346083 0.590234 0.260987
12 4 0.320335 0.646483 0.186606
13 1 0.434726 0.629052 0.294639
14 3 0.470773 0.698971 0.289081
15 4 0.488109 0.607861 0.304085
16 1 0.398797 0.738606 0.344449
17 3 0.419317 0.720227 0.413333
18 4 0.340933 0.750674 0.349431
19 1 0.498408 0.782036 0.420957
20 3 0.444357 0.844891 0.42694
21 4 0.558119 0.789754 0.409932
22 1 0.474115 0.865003 0.50615
23 3 0.473289 0.943162 0.506636
24 4 0.486379 0.855519 0.550828
25 1 0.545462 0.955262 0.448018
26 3 0.53701 0.998692 0.387669
27 4 0.606667 0.954543 0.444738
28 1 0.449389 0.955917 0.360699
29 3 0.458862 0.956603 0.288504
30 5 0.478596 0.882539 0.321845
31 1 0.536381 0.892212 0.289415
32 3 0.499509 0.826119 0.313774
33 4 0.594599 0.882564 0.2947
34 1 0.471559 0.794365 0.238451
35 3 0.522937 0.788805 0.179317
36 4 0.415386 0.795313 0.219074
37 1 0.557176 0.705053 0.193591
38 3 0.490546 0.650407 0.189461
39 4 0.607296 0.691776 0.216614
40 1 0.509415 0.626403 0.11268
41 3 0.592515 0.591346 0.100926
42 4 0.49314 0.643049 0.0691268
43 1 0.555486 0.508379 0.116538
44 3 0.482055 0.4796 0.0833106
45 4 0.550965 0.489117 0.159241
46 1 0.537521 0.412429 0.044738
47 3 0.590825 0.362099 0.0807593
48 4 0.561382 0.409845 0.00279423
49 1 0.500884 0.311181 0.102992
50 3 0.429734 0.287537 0.0584055
51 4 0.48575 0.322463 0.147699
52 1 0.429341 0.203098 0.0965224
53 3 0.428594 0.194399 0.168808
54 4 0.458626 0.162449 0.082126
55 1 0.325602 0.166634 0.172878
56 3 0.345415 0.124481 0.232498
57 4 0.272141 0.150512 0.156416
58 1 0.413067 0.068853 0.194624
59 3 0.486812 0.0571454 0.237024
60 4 0.431503 0.0356597 0.163402
61 1 0.520854 0.142369 0.235809
62 3 0.46468 0.156758 0.292756
63 4 0.534966 0.189199 0.220076
64 1 0.544518 0.141748 0.348793
65 3 0.574433 0.215231 0.335885
66 4 0.587523 0.113263 0.370326
67 1 0.540194 0.244336 0.413516
68 3 0.616652 0.292017 0.412513
69 4 0.510004 0.247574 0.454427
70 1 0.68733 0.228672 0.433318
71 3 0.746334 0.27197 0.392468
72 4 0.712331 0.184883 0.444799
73 1 0.709305 0.235964 0.318907
74 3 0.728016 0.306733 0.289476
75 4 0.688628 0.203654 0.287107
76 1 0.628445 0.339044 0.309066
77 3 0.681513 0.40422 0.312559
78 4 0.570541 0.344276 0.32079
79 1 0.70954 0.391957 0.392832
80 3 0.787492 0.43156 0.375308
81 4 0.714218 0.375213 0.436446
82 1 0.835253 0.360758 0.336462
83 3 0.871025 0.412592 0.287775
84 4 0.854554 0.314157 0.326925
85 1 0.783246 0.414064 0.238907
86 3 0.804827 0.491929 0.23022
87 4 0.733008 0.403174 0.215915
88 1 0.754157 0.518026 0.298952
89 3 0.825425 0.569697 0.305361
90 4 0.713943 0.524763 0.334214
91 1 0.893235 0.515998 0.343599
92 3 0.954519 0.558512 0.300046
93 4 0.921813 0.479731 0.366378
94 1 0.950195 0.500105 0.238147
95 3 0.9715 0.565968 0.199818
96 4 0.937615 0.459488 0.212847
97 1 0.875113 0.597298 0.195323
98 3 0.889107 0.673463 0.198724
99 4 0.828217 0.590986 0.167593
100 1 0.869924 0.680788 0.281549
101 3 0.914659 0.712869 0.337403
102 4 0.815441 0.68952 0.300562
103 1 0.974842 0.638994 0.353197
104 3 0.993868 0.630197 0.423295
105 5 0.934431 0.567777 0.327453
106 1 0.891545 0.620909 0.446682
107 3 0.880145 0.543076 0.44079
108 4 0.831283 0.633663 0.449294
109 1 0.940092 0.523945 0.510008
110 3 0.853729 0.521035 0.538162
111 4 0.968945 0.536732 0.550068
112 1 0.836157 0.434634 0.518967
113 3 0.773104 0.435157 0.574093
114 4 0.846889 0.389144 0.501838
115 1 0.845827 0.43604 0.634563
116 3 0.791619 0.479437 0.680911
117 4 0.896026 0.423907 0.658041
118 1 0.793742 0.55292 0.63508
119 3 0.708676 0.585001 0.628125
120 4 0.824797 0.592719 0.618983
121 1 0.675813 0.528 0.567077
122 3 0.630292 0.466977 0.598238
123 4 0.681237 0.507136 0.524343
124 1 0.536735 0.510145 0.606773
125 3 0.488698 0.55583 0.560881
126 4 0.522859 0.529832 0.647411
127 1 0.440898 0.485421 0.519484
128 3 0.375604 0.445295 0.555657
129 4 0.456189 0.4554 0.484525
130 1 0.294351 0.504945 0.534518
131 3 0.26141 0.530388 0.470311
132 4 0.278824 0.54602 0.561397
133 1 0.180038 0.46871 0.467153
134 3 0.128739 0.425281 0.514715
135 4 0.194504 0.435844 0.434533
136 1 0.0352608 0.471359 0.494487
137 3 0.0123433 0.433784 0.556598
138 4 0.0125005 0.433228 0.472103
139 1 0.0728409 0.495919 0.602976
140 3 0.0961122 0.453078 0.660866
141 5 0.0639176 0.460026 0.587257
142 1 0.157396 0.394606 0.617494
143 3 0.229451 0.421782 0.579134
144 4 0.145289 0.352844 0.594958
145 1 0.306734 0.397091 0.632984
146 3 0.30579 0.31916 0.624935
147 4 0.335076 0.402095 0.672984
148 1 0.364794 0.320207 0.553075
149 3 0.44648 0.317689 0.586059
150 4 0.373324 0.33561 0.509309
151 1 0.450843 0.226546 0.59183
152 3 0.468729 0.194497 0.528109
153 4 0.424624 0.190017 0.615459
154 1 0.578482 0.194268 0.53795
155 3 0.589646 0.150021 0.478542
156 4 0.632572 0.195773 0.560061
157 1 0.551201 0.0730063 0.517024
158 3 0.497347 0.0303292 0.472711
159 5 0.556272 0.00130811 0.476597
160 1 0.415189 0.0886055 0.469977
161 3 0.463069 0.132656 0.421807
162 4 0.368725 0.113198 0.488686
163 1 0.394198 0.113231 0.357206
164 3 0.316954 0.152343 0.379195
165 4 0.383388 0.0760477 0.325923
166 1 0.316365 0.208625 0.311921
167 3 0.224773 0.203458 0.319727
168 4 0.335626 0.2341 0.27429
169 1 0.211408 0.126018 0.280121
170 3 0.134321 0.115226 0.321731
171 4 0.216714 0.0849101 0.253667
172 1 0.191517 0.0951134 0.391526
173 3 0.116003 0.123499 0.428185
174 4 0.232517 0.0850736 0.423356
175 1 0.138881 0.209933 0.408474
176 3 0.0767719 0.258856 0.380228
177 4 0.178427 0.24607 0.418497
178 1 0.0597115 0.216572 0.309704
179 3 0.0402924 0.290415 0.28814
180 4 0.00157239 0.214282 0.323736
181 1 0.143009 0.311769 0.269947
182 3 0.168835 0.276941 0.209081
183 4 0.200637 0.320043 0.284586
184 1 0.0996501 0.328448 0.158876
185 3 0.148473 0.395718 0.158117
186 4 0.0413932 0.327238 0.149582
187 1 0.161563 0.396274 0.0740471
188 3 0.094815 0.449187 0.0923311
189 4 0.16058 0.389569 0.0282156
190 1 0.17143 0.517797 0.0935156
191 3 0.13837 0.568454 0.14369
192 4 0.13668 0.539381 0.0601974
193 1 0.152247 0.507659 0.207077
194 3 0.237156 0.542586 0.205072
195 4 0.160816 0.464165 0.229339
196 1 0.222729 0.589711 0.276052
197 3 0.19647 0.562894 0.341139
198 4 0.202563 0.638928 0.278907
199 1 0.298872 0.552004 0.369871
200 3 0.338535 0.621367 0.367259
201 4 0.34451 0.518811 0.369476
202 1 0.339361 0.63435 0.450964
203 3 0.391564 0.583988 0.490691
204 4 0.301427 0.648674 0.485285
205 1 0.481741 0.634939 0.486773
206 3 0.493691 0.705577 0.5159
207 4 0.525925 0.640138 0.454093
208 1 0.508393 0.674967 0.594442
209 3 0.575652 0.620255 0.602369
210 4 0.468808 0.668819 0.62858
211 1 0.652502 0.678335 0.628064
212 3 0.635284 0.702045 0.69631
213 4 0.690593 0.714047 0.61063
214 1 0.692441 0.635887 0.731784
215 3 0.776721 0.605114 0.728717
216 4 0.674987 0.589645 0.743629
217 1 0.8303 0.679316 0.755596
218 3 0.815716 0.661133 0.825938
219 4 0.846496 0.726376 0.747274
220 1 0.916978 0.623721 0.833743
221 3 0.998428 0.662703 0.843766
222 4 0.947561 0.582091 0.823721
223 1 0.955187 0.713589 0.907639
224 3 0.92598 0.778111 0.871617
225 5 0.928456 0.640879 0.868991
226 1 0.897323 0.820298 0.945847
227 3 0.840717 0.843582 0.998785
228 5 0.919847 0.775359 0.857602
ITEM: TIMESTEP
1000
ITEM: NUMBER OF ATOMS
228
ITEM: BOX BOUNDS ss ss ss
17.546 42.985
14.7296 45.308
2.802 35.727
ITEM: ATOMS id type xs ys zs
1 1 0.380739 0.383723 -0.0397933
2 3 0.444552 0.424182 -0.00449774
3 4 0.328034 0.367046 -0.020816
4 1 0.392619 0.49204 0.0126922
5 3 0.311925 0.497637 0.0524158
6 4 0.393976 0.532789 -0.0143453
7 1 0.354099 0.519398 0.119329
8 3 0.413624 0.575703 0.13369
9 4 0.353688 0.482683 0.150483
10 1 0.363615 0.62593 0.177905
11 3 0.327907 0.610578 0.244723
12 4 0.328332 0.662973 0.163818
13 1 0.404768 0.633859 0.288486
14 3 0.429212 0.711178 0.291368
15 4 0.453458 0.611017 0.30215
16 1 0.36736 0.736028 0.344644
17 3 0.390978 0.71234 0.410444
18 4 0.307071 0.747223 0.344697
19 1 0.448881 0.774327 0.434154
20 3 0.394704 0.836422 0.442152
21 4 0.505697 0.781533 0.428056
22 1 0.402494 0.84962 0.517476
23 3 0.393598 0.929965 0.506686
24 4 0.407274 0.838973 0.560418
25 1 0.486874 0.942402 0.480509
26 3 0.463009 0.998396 0.432037
27 4 0.547132 0.944108 0.480349
28 1 0.415344 0.952025 0.380699
29 3 0.447415 0.955032 0.309995
30 5 0.465255 0.93568 0.403251
31 1 0.510931 0.893933 0.31487
32 3 0.478867 0.822321 0.321797
33 4 0.568303 0.885399 0.326341
34 1 0.464477 0.79951 0.250018
35 3 0.53955 0.791957 0.206177
36 4 0.41685 0.804766 0.223382
37 1 0.560927 0.71516 0.204444
38 3 0.50599 0.653102 0.189388
39 4 0.601353 0.698891 0.23445
40 1 0.521897 0.641111 0.117522
41 3 0.600016 0.598205 0.107959
42 4 0.518173 0.66491 0.0769882
43 1 0.564466 0.523234 0.118292
44 3 0.497922 0.480314 0.0848591
45 4 0.561642 0.501977 0.160514
46 1 0.550508 0.435082 0.0383459
47 3 0.594566 0.370897 0.0660484
48 4 0.582401 0.436457 -0.000906156
49 1 0.518535 0.328112 0.0890819
50 3 0.441879 0.303265 0.0517862
51 4 0.498 0.33655 0.132258
52 1 0.449785 0.222518 0.0652273
53 3 0.437504 0.204945 0.135689
54 4 0.487625 0.184389 0.0498235
55 1 0.343657 0.176121 0.130142
56 3 0.35547 0.131216 0.189618
57 4 0.287985 0.161782 0.113974
58 1 0.425131 0.0800589 0.158104
59 3 0.499467 0.0721528 0.201856
60 4 0.441756 0.048576 0.125746
61 1 0.527232 0.148135 0.210779
62 3 0.478492 0.170354 0.26984
63 4 0.54336 0.194435 0.19518
64 1 0.541401 0.141817 0.323951
65 3 0.575917 0.216195 0.328267
66 4 0.580585 0.111749 0.343319
67 1 0.533178 0.240796 0.392214
68 3 0.61071 0.277707 0.415291
69 4 0.498429 0.241364 0.42845
70 1 0.675842 0.220955 0.414766
71 3 0.750281 0.24901 0.374042
72 4 0.69521 0.178322 0.430021
73 1 0.712124 0.234931 0.306423
74 3 0.726376 0.305521 0.276188
75 4 0.689157 0.202269 0.275251
76 1 0.63781 0.339347 0.297179
77 3 0.685975 0.405169 0.315249
78 4 0.580094 0.342504 0.311553
79 1 0.711435 0.385592 0.387897
80 3 0.800184 0.415231 0.377362
81 4 0.710598 0.366186 0.430276
82 1 0.837332 0.354294 0.331812
83 3 0.878102 0.402206 0.282728
84 4 0.854394 0.307898 0.32364
85 1 0.798971 0.413883 0.237104
86 3 0.813276 0.49127 0.238979
87 4 0.74876 0.404278 0.210279
88 1 0.768553 0.514592 0.301123
89 3 0.839405 0.565701 0.322134
90 4 0.723847 0.519795 0.332212
91 1 0.904772 0.508371 0.345615
92 3 0.977626 0.53571 0.305903
93 4 0.92543 0.471149 0.369958
94 1 0.963135 0.495906 0.243017
95 3 0.987444 0.558691 0.203653
96 4 0.95225 0.456855 0.215046
97 1 0.900523 0.595956 0.199936
98 3 0.907851 0.671355 0.214985
99 4 0.849163 0.595401 0.175806
100 1 0.890153 0.672641 0.287884
101 3 0.962813 0.699146 0.330951
102 4 0.837802 0.681924 0.308381
103 1 0.988042 0.630376 0.362313
104 3 0.990484 0.643091 0.433929
105 5 1.0225 0.667981 0.345295
106 1 0.904124 0.604982 0.454402
107 3 0.904606 0.526679 0.450075
108 4 0.846071 0.618916 0.456042
109 1 0.946034 0.506125 0.51468
110 3 0.86087 0.494174 0.541472
111 4 0.975844 0.514979 0.554781
112 1 0.836976 0.4207 0.519853
113 3 0.777825 0.406425 0.577695
114 4 0.844963 0.377674 0.500968
115 1 0.841961 0.41921 0.633656
116 3 0.798671 0.468794 0.678843
117 4 0.891611 0.408498 0.65962
118 1 0.800099 0.536223 0.634616
119 3 0.716178 0.574278 0.616749
120 4 0.838135 0.572683 0.622347
121 1 0.6828 0.519004 0.567752
122 3 0.62851 0.465786 0.601388
123 4 0.689512 0.494724 0.527087
124 1 0.542018 0.504892 0.604474
125 3 0.490922 0.548738 0.559196
126 4 0.528295 0.52578 0.642773
127 1 0.445418 0.491286 0.51665
128 3 0.37206 0.466513 0.557077
129 4 0.457701 0.456015 0.485366
130 1 0.298987 0.507462 0.525664
131 3 0.275643 0.507966 0.456473
132 4 0.285358 0.549101 0.550639
133 1 0.184585 0.476646 0.459303
134 3 0.117255 0.445487 0.501129
135 4 0.199851 0.440519 0.429992
136 1 0.0400796 0.488428 0.481837
137 3 0.00135144 0.490523 0.54809
138 4 0.0146043 0.446221 0.473887
139 1 0.0789284 0.517672 0.589917
140 3 0.127695 0.487554 0.64655
141 5 0.0977599 0.513381 0.63701
142 1 0.153876 0.416763 0.615701
143 3 0.234033 0.432571 0.579746
144 4 0.135962 0.370563 0.599575
145 1 0.301573 0.412913 0.6296
146 3 0.310453 0.332643 0.626599
147 4 0.326602 0.418683 0.670666
148 1 0.356326 0.322662 0.559998
149 3 0.433943 0.315668 0.600999
150 4 0.364368 0.333964 0.516509
151 1 0.440402 0.234551 0.603971
152 3 0.476471 0.218025 0.539763
153 4 0.411746 0.202345 0.632913
154 1 0.560604 0.183444 0.562895
155 3 0.579375 0.122351 0.516736
156 4 0.610545 0.186509 0.588061
157 1 0.527201 0.0625544 0.549634
158 3 0.469196 0.027085 0.50094
159 5 0.523416 0.109866 0.536803
160 1 0.395659 0.0829639 0.497456
161 3 0.435476 0.118847 0.438962
162 4 0.35266 0.112413 0.516256
163 1 0.36976 0.0963716 0.386239
164 3 0.290026 0.138195 0.39253
165 4 0.357928 0.0538551 0.362378
166 1 0.29971 0.186832 0.330597
167 3 0.208991 0.186294 0.316327
168 4 0.322042 0.210652 0.293821
169 1 0.189561 0.106743 0.310246
170 3 0.115455 0.095174 0.356003
171 4 0.199168 0.0666844 0.283732
172 1 0.162418 0.0906875 0.420633
173 3 0.10105 0.132382 0.457407
174 4 0.200796 0.0830248 0.454637
175 1 0.121958 0.20634 0.428529
176 3 0.0377419 0.234867 0.401348
177 4 0.162942 0.240541 0.434168
178 1 0.0449107 0.205871 0.330718
179 3 0.0356686 0.268824 0.291886
180 4 -0.0124131 0.207868 0.342785
181 1 0.12894 0.289417 0.278471
182 3 0.154658 0.255286 0.214881
183 4 0.184798 0.300043 0.29464
184 1 0.0942474 0.297877 0.167331
185 3 0.168015 0.346553 0.154506
186 4 0.0369931 0.300773 0.156153
187 1 0.152444 0.359252 0.0802176
188 3 0.100805 0.421652 0.0940629
189 4 0.143246 0.344175 0.0350013
190 1 0.163938 0.481689 0.0864984
191 3 0.130065 0.523725 0.141988
192 4 0.128823 0.503888 0.0563476
193 1 0.162719 0.481352 0.201861
194 3 0.252945 0.508159 0.214575
195 4 0.161316 0.437086 0.226901
196 1 0.225633 0.568594 0.26381
197 3 0.206662 0.545969 0.334555
198 4 0.206948 0.616387 0.262718
199 1 0.302872 0.543248 0.354075
200 3 0.357408 0.608817 0.353602
201 4 0.339213 0.503308 0.363614
202 1 0.351679 0.622283 0.430585
203 3 0.408926 0.580188 0.47404
204 4 0.316285 0.649741 0.459868
205 1 0.490707 0.625696 0.471433
206 3 0.507557 0.696761 0.50371
207 4 0.530308 0.625927 0.436303
208 1 0.526049 0.666886 0.574907
209 3 0.593834 0.619072 0.593248
210 4 0.484431 0.663777 0.606969
211 1 0.666158 0.672205 0.603181
212 3 0.670274 0.697008 0.671589
213 4 0.702315 0.703049 0.584631
214 1 0.715036 0.642786 0.707002
215 3 0.792894 0.595653 0.709296
216 4 0.678391 0.603453 0.730936
217 1 0.858857 0.653343 0.729556
218 3 0.832488 0.645632 0.803347
219 4 0.879445 0.697955 0.712618
220 1 0.920054 0.609451 0.823391
221 3 0.989715 0.656819 0.840781
222 4 0.948903 0.566944 0.812754
223 1 0.950256 0.707374 0.887564
224 3 0.872254 0.752062 0.876243
225 5 0.977547 0.709377 0.932158
226 1 0.904193 0.822764 0.867994
227 3 0.888523 0.879101 0.914148
228 5 0.923887 0.829241 0.913274
