LAMMPS protain data file

         315  atoms
         418  bonds
           0  angles
           0  dihedrals
           0  impropers

           5  atom types
           5  bond types
           0  angle types
           0  dihedral types
           0  improper types

-200.0	200.0	xlo xhi
-200.0	200.0	ylo yhi
-200.0	200.0	zlo zhi

Masses

           1	27.0
           2	14.0
           3	28.0
           4	60.0
           5	60.0

Atoms

           1	1	1	1	0.0	38.98899841	16.44199944	23.75699997
           2	1	1	3	0.0	40.35200119	16.00200081	21.83300018
           3	1	1	4	0.0	37.75600052	17.28800011	24.11700058
           4	1	2	1	0.0	38.47299957	16.47999954	19.92499924
           5	1	2	3	0.0	38.52700043	18.85400009	19.56500053
           6	1	2	4	0.0	37.10499954	16.16500092	19.20700073
           7	1	3	1	0.0	41.07400131	18.86700058	18.40099907
           8	1	3	3	0.0	40.89300156	18.28499985	16.06399918
           9	1	3	4	0.0	42.56999969	18.61899948	18.48900032
          10	1	4	1	0.0	39.92200089	20.76799965	15.26399994
          11	1	4	3	0.0	41.77399826	22.20899963	14.82600021
          12	1	4	4	0.0	38.96099854	21.93600082	15.27600002
          13	1	5	1	0.0	42.68299866	20.6970005	12.60999966
          14	1	5	3	0.0	41.36500168	21.41799927	10.70699978
          15	1	5	4	0.0	43.22900009	19.32699966	12.03999996
          16	1	6	1	0.0	42.77999878	23.72800064	10.27400017
          17	1	6	3	0.0	44.06800079	25.10400009	8.71500015
          18	1	6	4	0.0	42.15499878	25.01199913	10.83399963
          19	1	7	1	0.0	46.16699982	23.39100075	8.49800014
          20	1	7	3	0.0	46.85100174	21.31500053	9.44299984
          21	1	7	4	0.0	47.09899902	24.48999977	8.95499992
          22	1	8	1	0.0	48.82400131	20.9640007	7.37400007
          23	1	8	3	0.0	50.19200134	20.1590004	9.1619997
          24	1	8	4	0.0	49.52399826	21.06500053	6.02600002
          25	1	9	1	0.0	51.12900162	22.60300064	10.02600002
          26	1	9	3	0.0	51.45700073	21.42099953	12.09599972
          27	1	9	4	0.0	51.36600113	24.10300064	10.26099968
          28	1	10	1	0.0	48.74399948	21.74799919	12.90400028
          29	1	10	3	0.0	48.71500015	19.5529995	13.86299992
          30	1	10	4	0.0	47.35100174	22.36199951	13.06099987
          31	1	11	1	0.0	48.24000168	18.19599915	11.52700043
          32	1	11	3	0.0	49.6969986	16.67000008	12.72700024
          33	1	11	4	0.0	47.77799988	17.81699944	10.10900021
          34	1	12	1	0.0	51.99599838	17.64100075	11.38099957
          35	1	12	3	0.0	53.08300018	16.92399979	13.39099979
          36	1	12	4	0.0	52.89899826	18.42399979	10.43500042
          37	1	13	1	0.0	52.67599869	19.19300079	14.7670002
          38	1	13	3	0.0	52.49000168	17.89100075	16.6760006
          39	1	13	4	0.0	52.65499878	20.6779995	15.17800045
          40	1	14	1	0.0	49.82400131	17.4470005	16.60499954
          41	1	14	3	0.0	50.47800064	15.4289999	17.64599991
          42	1	14	4	0.0	48.32400131	17.40099907	16.28199959
          43	1	15	1	0.0	51.19400024	14.10200024	15.37699986
          44	1	15	3	0.0	52.94200134	13.05200005	16.55500031
          45	1	15	4	0.0	51.3219986	13.55799961	13.96100044
          46	1	16	1	0.0	54.53300095	15.31099987	16.65600014
          47	1	16	3	0.0	54.99900055	14.83699989	18.95299911
          48	1	16	4	0.0	55.29100037	16.49699974	16.07500076
          49	1	17	1	0.0	53.2179985	16.39299965	20.08399963
          50	1	17	3	0.0	52.81000137	14.86499977	21.81100082
          51	1	17	4	0.0	52.34899902	17.58600044	20.42099953
          52	1	18	1	0.0	51.25600052	13.07199955	20.5170002
          53	1	18	3	0.0	51.78099823	11.27299976	22.01199913
          54	1	18	4	0.0	50.52099991	12.23099995	19.49799919
          55	1	19	1	0.0	54.54199982	11.33199978	21.47699928
          56	1	19	3	0.0	54.25	9.53899956	19.84199905
          57	1	19	5	0.0	53.50500107	10.68396996	20.92426863
          58	1	20	1	0.0	53.77500153	7.66300011	21.75799942
          59	1	20	3	0.0	51.86199951	6.27899981	21.58499908
          60	1	20	4	0.0	54.54899979	6.74499989	22.76399994
          61	1	21	1	0.0	49.96500015	8.07800007	22.06900024
          62	1	21	3	0.0	49.91199875	8.08199978	19.64100075
          63	1	21	4	0.0	49.26100159	9.29599953	22.67200089
          64	1	22	1	0.0	47.48500061	6.74399996	19.5170002
          65	1	22	3	0.0	46.30099869	8.79800034	19.94599915
          66	1	22	4	0.0	46.36600113	5.70800018	19.75
          67	1	23	1	0.0	46.06700134	9.47399998	17.32799911
          68	1	23	3	0.0	45.34899902	8.12899971	15.52600002
          69	1	23	4	0.0	46.93500137	10.39799976	16.52700043
          70	1	24	1	0.0	42.68000031	8.82900047	15.70699978
          71	1	24	3	0.0	41.95600128	11.04500008	15.72999954
          72	1	24	4	0.0	41.51300049	8.25899982	16.54100037
          73	1	25	1	0.0	41.74300003	11.34700012	12.97200012
          74	1	25	3	0.0	40.37400055	9.99699974	11.59200001
          75	1	25	4	0.0	42.76800156	11.73900032	11.86999989
          76	1	26	1	0.0	38.23099899	11.73400021	11.70199966
          77	1	26	3	0.0	38.13800049	13.92399979	10.67399979
          78	1	26	4	0.0	37.09799957	12.07600021	12.68500042
          79	1	27	1	0.0	38.04499817	12.86900043	8.05500031
          80	1	27	3	0.0	35.99000168	11.91100025	7.29799986
          81	1	27	4	0.0	38.80500031	12.19900036	6.93100023
          82	1	28	1	0.0	34.62099838	14.32900047	7.78700018
          83	1	28	3	0.0	35.32699966	16.1609993	6.36999989
          84	1	28	4	0.0	34.10599899	14.63399982	9.20800018
          85	1	29	1	0.0	32.64599991	16.68600082	5.55200005
          86	1	29	3	0.0	30.44300079	16.23500061	6.39300013
          87	1	29	4	0.0	32.65100098	16.15800095	4.11499977
          88	1	30	1	0.0	29.44300079	18.83399963	5.86100006
          89	1	30	3	0.0	27.24300003	17.9279995	5.80999994
          90	1	30	4	0.0	29.47599983	20.3029995	5.36100006
          91	1	31	1	0.0	27.44599915	16.86100006	3.227
          92	1	31	3	0.0	26.44599915	14.57900047	3.07399988
          93	1	31	4	0.0	27.74200058	16.98200035	1.72899997
          94	1	32	1	0.0	28.06699944	13.58500004	4.97200012
          95	1	32	3	0.0	27.47500038	13.80700016	7.26000023
          96	1	32	4	0.0	29.51000023	13.28999996	5.24800014
          97	1	33	1	0.0	25.02599907	12.47500038	6.95699978
          98	1	33	3	0.0	25.41500092	11.72399998	9.15400028
          99	1	33	5	0.0	26.01199913	12.04395335	6.86171436
         100	1	34	1	0.0	26.72599983	9.37699986	8.56499958
         101	1	34	3	0.0	28.02400017	9.6239996	10.56000042
         102	1	34	4	0.0	27.19499969	8.25300026	7.66300011
         103	1	35	1	0.0	29.64599991	11.71199989	9.60999966
         104	1	35	3	0.0	29.51199913	12.59899998	11.81299973
         105	1	35	4	0.0	30.4489994	12.65400028	8.66499996
         106	1	36	1	0.0	26.96899986	13.83399963	11.42099953
         107	1	36	3	0.0	26.40999985	13.19900036	13.67800045
         108	1	36	4	0.0	25.80800056	14.61200047	10.85900021
         109	1	37	1	0.0	25.40200043	10.74300003	12.97399998
         110	1	37	3	0.0	26.07900047	9.84700012	15.11900043
         111	1	37	4	0.0	24.89500046	9.51900005	12.21000004
         112	1	38	1	0.0	28.72900009	9.66699982	14.54699993
         113	1	38	3	0.0	30.54100037	10.33899975	16.02199936
         114	1	38	4	0.0	29.65200043	8.70800018	13.78499985
         115	1	39	1	0.0	30.15099907	13.03199959	15.78100014
         116	1	39	3	0.0	31.0340004	13.03100014	18.00600052
         117	1	39	4	0.0	29.65699959	14.41699982	15.3579998
         118	1	40	1	0.0	28.69300079	12.64299965	19.37299919
         119	1	40	3	0.0	30.03100014	11.46899986	20.91799927
         120	1	40	4	0.0	27.22800064	12.64599991	19.58699989
         121	1	41	1	0.0	30.01399994	9.07699966	19.70700073
         122	1	41	3	0.0	32.25500107	8.96199989	20.49500084
         123	1	41	4	0.0	29.60400009	7.87400007	18.90600014
         124	1	42	1	0.0	33.38399887	10.38199997	18.40299988
         125	1	42	3	0.0	34.9109993	11.05799961	20.17300034
         126	1	42	4	0.0	33.60300064	11.13500023	17.04400063
         127	1	43	1	0.0	33.38000107	13.12899971	21.04000092
         128	1	43	3	0.0	34.19900131	12.32699966	23.09799957
         129	1	43	4	0.0	32.41199875	14.32299995	21.06599998
         130	1	44	1	0.0	32.2820015	10.60099983	23.78100014
         131	1	44	3	0.0	34.10900116	9.69400024	25.04599953
         132	1	44	4	0.0	31.04700089	9.70400047	23.76199913
         133	1	45	1	0.0	35.3219986	8.47200012	22.91300011
         134	1	45	3	0.0	37.33599854	8.64599991	24.09799957
         135	1	45	4	0.0	35.65800095	7.8579998	21.58300018
         136	1	46	1	0.0	37.73600006	11.29800034	23.50399971
         137	1	46	3	0.0	38.76200104	11.82999992	25.63999939
         138	1	46	4	0.0	37.79999924	12.65400028	22.7689991
         139	1	47	1	0.0	36.4620018	11.63199997	27.05599976
         140	1	47	3	0.0	37.01300049	10.31299973	28.9260006
         141	1	47	4	0.0	35.1269989	12.19900036	27.37299919
         142	1	48	1	0.0	36.4109993	7.95800018	27.68799973
         143	1	48	3	0.0	38.43299866	7.25	28.71299934
         144	1	48	4	0.0	35.58800125	7.00299978	26.88599968
         145	1	49	1	0.0	40.00899887	7.54899979	26.49500084
         146	1	49	3	0.0	41.14099884	9.44299984	25.45199966
         147	1	49	4	0.0	40.37599945	6.71400023	25.2310009
         148	1	50	1	0.0	42.26900101	10.23900032	27.9260006
         149	1	50	3	0.0	44.41999817	10.89000034	27.09700012
         150	1	50	4	0.0	42.35200119	10.43799973	29.45100021
         151	1	51	1	0.0	45.35900116	8.43299961	26.71999931
         152	1	51	3	0.0	46.36600113	7.61800003	24.66600037
         153	1	51	4	0.0	45.93099976	7.26000023	27.52099991
         154	1	52	1	0.0	44.42300034	8.59899998	22.9470005
         155	1	52	3	0.0	43.47700119	10.77799988	23.21899986
         156	1	52	4	0.0	43.28900146	7.66200018	22.46899986
         157	1	53	1	0.0	44.38499832	11.91600037	20.89800072
         158	1	53	3	0.0	43.53099823	10.98400021	18.89699936
         159	1	53	4	0.0	45.75699997	12.50399971	20.39599991
         160	1	54	1	0.0	41.31399918	12.60200024	18.73600006
         161	1	54	3	0.0	41.08000183	14.97000027	18.60700035
         162	1	54	4	0.0	39.92100143	12.34799957	19.39299965
         163	1	55	1	0.0	41.53499985	14.94099998	15.76599979
         164	1	55	3	0.0	39.86399841	13.81499958	14.46700001
         165	1	55	4	0.0	42.82300186	14.84500027	15.00699997
         166	1	56	1	0.0	38.94100189	16.07299995	13.21000004
         167	1	56	3	0.0	39.98099899	18.09300041	12.34599972
         168	1	56	4	0.0	37.61899948	16.61100006	13.79100037
         169	1	57	1	0.0	39.80799866	17.26099968	9.67099953
         170	1	57	3	0.0	37.94499969	16.34000015	8.56900024
         171	1	57	4	0.0	40.84600067	16.4659996	8.84399986
         172	1	58	1	0.0	36.96099854	18.65099907	7.57200003
         173	1	58	3	0.0	38.40200043	19.75	5.91699982
         174	1	58	4	0.0	36.12099838	19.87100029	7.93900013
         175	1	59	1	0.0	38.11100006	17.70499992	3.97000003
         176	1	59	3	0.0	38.84899902	19.31200027	2.33299994
         177	1	59	4	0.0	37.63000107	16.43199921	3.227
         178	1	60	1	0.0	36.49900055	20.82500076	2.52399993
         179	1	60	3	0.0	37.90299988	22.74399948	2.26600003
         180	1	60	4	0.0	35.01100159	21.21199989	2.77999997
         181	1	61	1	0.0	38.76499939	23.12800026	4.73400021
         182	1	61	3	0.0	41.00999832	23.63100052	4.12799978
         183	1	61	4	0.0	38.80599976	23.47999954	6.20800018
         184	1	62	1	0.0	41.87900162	21.0359993	4.46199989
         185	1	62	3	0.0	42.37900162	18.94499969	3.41199994
         186	1	62	4	0.0	42.3769989	20.31399918	5.71500015
         187	1	63	1	0.0	41.74900055	19.79299927	0.87
         188	1	63	3	0.0	43.25400162	18.14800072	0.039
         189	1	63	4	0.0	41.28699875	20.64999962	-0.30599999
         190	1	64	1	0.0	45.63100052	19.43199921	0.89099997
         191	1	64	3	0.0	46.21099854	17.13500023	1.19099998
         192	1	64	4	0.0	46.56800079	20.5720005	1.34300005
         193	1	65	1	0.0	45.73699951	17.1970005	4.00199986
         194	1	65	3	0.0	45.27999878	14.85999966	3.54900002
         195	1	65	4	0.0	45.39199829	17.76799965	5.41599989
         196	1	66	1	0.0	42.66400146	15.3210001	2.5079999
         197	1	66	3	0.0	43.24100113	13.34899998	1.27400005
         198	1	66	4	0.0	41.36800003	16.03499985	2.09200001
         199	1	67	1	0.0	44.5320015	14.62100029	-0.86799997
         200	1	67	3	0.0	46.02099991	12.69400024	-0.86500001
         201	1	67	4	0.0	45.00099945	15.66600037	-1.91199994
         202	1	68	1	0.0	47.77000046	13.66499996	1.01499999
         203	1	68	3	0.0	48.18799973	11.30500031	1.46899998
         204	1	68	4	0.0	48.49900055	14.57900047	2.01200008
         205	1	69	1	0.0	46.13299942	11.07299995	3.27999997
         206	1	69	3	0.0	44.84999847	9.03100014	2.84299994
         207	1	69	4	0.0	45.43399811	11.53800011	4.57499981
         208	1	70	1	0.0	44.2120018	9.81799984	0.204
         209	1	70	3	0.0	42.54499817	8.11200047	0.61400002
         210	1	70	4	0.0	45.09400177	8.67000008	-0.29699999
         211	1	71	1	0.0	40.78300095	10.00899982	1.65999997
         212	1	71	3	0.0	39.9679985	10.44499969	-0.528
         213	1	71	4	0.0	40.35300064	11.25500011	2.47600007
         214	1	72	1	0.0	38.17900085	8.21700001	-0.454
         215	1	72	3	0.0	35.88800049	8.98700047	-0.81900001
         216	1	72	4	0.0	38.43099976	6.7249999	-0.79900002
         217	1	73	1	0.0	34.95800018	7.75199986	1.52499998
         218	1	73	3	0.0	35.81100082	8.93900013	3.40499997
         219	1	73	4	0.0	34.60200119	6.33599997	1.86600006
         220	1	74	1	0.0	33.25299835	9.79399967	4.25299978
         221	1	74	3	0.0	31.71299934	8.05300045	4.74599981
         222	1	74	4	0.0	32.34600067	10.9119997	3.87100005
         223	1	75	1	0.0	34.00500107	9.37800026	7.08900023
         224	1	75	3	0.0	34.79800034	7.12799978	6.82999992
         225	1	75	4	0.0	33.63100052	9.6960001	8.50599957
         226	1	76	1	0.0	37.4640007	7.85500002	7.17500019
         227	1	76	3	0.0	38.1269989	9.26200008	8.96899986
         228	1	76	4	0.0	38.45199966	8.18599987	6.01000023
         229	1	77	1	0.0	39.33200073	7.17000008	10.40600014
         230	1	77	3	0.0	40.76100159	5.44299984	9.5539999
         231	1	77	4	0.0	38.70100021	6.40299988	11.59799957
         232	1	78	1	0.0	43.09799957	6.86000013	10.14999962
         233	1	78	3	0.0	43.26499939	7.79199982	12.32299995
         234	1	78	4	0.0	43.90999985	7.80900002	9.28600025
         235	1	79	1	0.0	45.11700058	5.77699995	13.11800003
         236	1	79	3	0.0	47.14899826	5.34700012	12.07499981
         237	1	79	4	0.0	44.75899887	4.35400009	13.58100033
         238	1	80	1	0.0	48.70399857	6.95599985	13.81799984
         239	1	80	3	0.0	48.80799866	7.04199982	16.25399971
         240	1	80	4	0.0	49.04199982	8.41600037	13.43799973
         241	1	81	1	0.0	51.35900116	5.88600016	16.29999924
         242	1	81	3	0.0	53.29299927	5.79199982	14.86800003
         243	1	81	4	0.0	51.3219986	4.39900017	16.6079998
         244	1	82	1	0.0	54.56700134	7.93100023	16.19199944
         245	1	82	3	0.0	55.74900055	8.18000031	14.08199978
         246	1	82	4	0.0	55.63600159	6.88899994	16.57799911
         247	1	83	1	0.0	53.70500183	9.44400024	12.81700039
         248	1	83	3	0.0	53.43299866	8.60900021	10.62800026
         249	1	83	5	0.0	53.69800186	9.97316717	11.32649474
         250	1	84	1	0.0	53.30400085	5.97300005	11.18799973
         251	1	84	3	0.0	51.19100189	5.64900017	12.18599987
         252	1	84	4	0.0	54.00099945	4.69199991	11.61400032
         253	1	85	1	0.0	49.76399994	5.21600008	9.9090004
         254	1	85	3	0.0	50.34000015	2.9289999	9.54899979
         255	1	85	4	0.0	49.18000031	5.50699997	8.51200008
         256	1	86	1	0.0	48.87599945	2.0	11.70100021
         257	1	86	3	0.0	47.3030014	0.25400001	11.59899998
         258	1	86	4	0.0	49.1780014	1.84300005	13.23999977
         259	1	87	1	0.0	45.19599915	1.61899996	10.61100006
         260	1	87	3	0.0	44.73699951	3.80800009	9.84899998
         261	1	87	5	0.0	46.4980011	0.33540376	10.0784966
         262	1	88	1	0.0	42.36600113	3.16199994	8.56499958
         263	1	88	3	0.0	41.23899841	1.14999998	7.89400005
         264	1	88	4	0.0	43.05599976	3.63800001	7.28700018
         265	1	89	1	0.0	38.79100037	2.32599998	7.63100004
         266	1	89	3	0.0	37.9679985	4.55600023	7.91800022
         267	1	89	4	0.0	38.09999847	1.27100003	8.52400017
         268	1	90	1	0.0	35.79499817	4.05700016	6.10900021
         269	1	90	3	0.0	34.29199982	2.32999992	6.70300007
         270	1	90	4	0.0	35.69499969	4.12599993	4.56099987
         271	1	91	1	0.0	32.19599915	4.125	7.36100006
         272	1	91	3	0.0	32.86800003	4.50400019	9.67599964
         273	1	91	5	0.0	33.52299881	3.29156292	6.44019346
         274	1	92	1	0.0	30.3390007	5.20599985	10.47999954
         275	1	92	3	0.0	28.7329998	3.88499999	11.82199955
         276	1	92	4	0.0	29.25099945	6.2750001	10.35700035
         277	1	93	1	0.0	30.61300087	1.91100001	12.36699963
         278	1	93	3	0.0	32.49499893	2.296	13.79599953
         279	1	93	4	0.0	31.29999924	0.76999998	11.62699986
         280	1	94	1	0.0	30.85199928	2.65899992	16.10700035
         281	1	94	3	0.0	32.54600143	1.74199998	17.55699921
         282	1	94	4	0.0	29.62000084	3.07599998	16.92300034
         283	1	95	1	0.0	31.81599998	-0.838	17.29000092
         284	1	95	3	0.0	34.17599869	-1.03499997	17.50200081
         285	1	95	4	0.0	31.00799942	-2.16499996	17.12800026
         286	1	96	1	0.0	34.68899918	-1.16799998	14.81700039
         287	1	96	3	0.0	36.76399994	-0.17299999	15.45699978
         288	1	96	4	0.0	34.51100159	-1.27199996	13.3039999
         289	1	97	1	0.0	35.85300064	2.38800001	15.73900032
         290	1	97	3	0.0	37.75500107	2.26099992	17.20000076
         291	1	97	4	0.0	34.98099899	3.63800001	15.75899982
         292	1	98	1	0.0	36.22800064	1.56299996	19.35099983
         293	1	98	3	0.0	38.0019989	0.115	20.17700005
         294	1	98	4	0.0	34.98500061	1.60800004	20.29700089
         295	1	99	1	0.0	37.32400131	-2.00200009	18.5529995
         296	1	99	3	0.0	39.68199921	-2.39899993	18.74099922
         297	1	99	4	0.0	36.59400177	-2.93199992	17.59700012
         298	1	100	1	0.0	40.38800049	-0.74000001	16.50600052
         299	1	100	3	0.0	42.45500183	-0.111	17.60099983
         300	1	100	4	0.0	40.22499847	0.003	15.15100002
         301	1	101	1	0.0	41.25999832	1.87600005	19.20499992
         302	1	101	3	0.0	42.98899841	0.91600001	20.60499954
         303	1	101	4	0.0	40.2159996	2.88100004	19.83499908
         304	1	102	1	0.0	41.4109993	-0.89200002	21.81100082
         305	1	102	3	0.0	43.13899994	-2.43799996	21.98399925
         306	1	102	4	0.0	40.28699875	-1.77400005	22.39900017
         307	1	103	1	0.0	43.58000183	-2.88199997	19.31599998
         308	1	103	3	0.0	45.97299957	-2.73600006	19.46299934
         309	1	103	4	0.0	43.1590004	-3.37299991	17.95400047
         310	1	104	1	0.0	46.19900131	-0.18099999	18.67099953
         311	1	104	3	0.0	47.74000168	1.22599995	19.76600075
         312	1	104	4	0.0	46.11399841	0.79100001	17.47100067
         313	1	105	1	0.0	46.40800095	1.41100001	22.15299988
         314	1	105	3	0.0	47.64500046	-0.55400002	22.7310009
         315	1	105	4	0.0	45.2179985	1.60800004	23.1760006

Bond Coeffs

           1	200.0	3.77
           2	200.0	2.41
           3	200.0	2.50
           4	200.0	1.54
           5	200.0	1.54
Bonds

           1	2	1	2
           2	4	1	3
           3	1	1	4
           4	3	2	4
           5	2	4	5
           6	4	4	6
           7	1	4	7
           8	3	5	7
           9	2	7	8
          10	4	7	9
          11	1	7	10
          12	3	8	10
          13	2	10	11
          14	4	10	12
          15	1	10	13
          16	3	11	13
          17	2	13	14
          18	4	13	15
          19	1	13	16
          20	3	14	16
          21	2	16	17
          22	4	16	18
          23	1	16	19
          24	3	17	19
          25	2	19	20
          26	4	19	21
          27	1	19	22
          28	3	20	22
          29	2	22	23
          30	4	22	24
          31	1	22	25
          32	3	23	25
          33	2	25	26
          34	4	25	27
          35	1	25	28
          36	3	26	28
          37	2	28	29
          38	4	28	30
          39	1	28	31
          40	3	29	31
          41	2	31	32
          42	4	31	33
          43	1	31	34
          44	3	32	34
          45	2	34	35
          46	4	34	36
          47	1	34	37
          48	3	35	37
          49	2	37	38
          50	4	37	39
          51	1	37	40
          52	3	38	40
          53	2	40	41
          54	4	40	42
          55	1	40	43
          56	3	41	43
          57	2	43	44
          58	4	43	45
          59	1	43	46
          60	3	44	46
          61	2	46	47
          62	4	46	48
          63	1	46	49
          64	3	47	49
          65	2	49	50
          66	4	49	51
          67	1	49	52
          68	3	50	52
          69	2	52	53
          70	4	52	54
          71	1	52	55
          72	3	53	55
          73	2	55	56
          74	5	55	57
          75	1	55	58
          76	3	56	58
          77	2	58	59
          78	4	58	60
          79	1	58	61
          80	3	59	61
          81	2	61	62
          82	4	61	63
          83	1	61	64
          84	3	62	64
          85	2	64	65
          86	4	64	66
          87	1	64	67
          88	3	65	67
          89	2	67	68
          90	4	67	69
          91	1	67	70
          92	3	68	70
          93	2	70	71
          94	4	70	72
          95	1	70	73
          96	3	71	73
          97	2	73	74
          98	4	73	75
          99	1	73	76
         100	3	74	76
         101	2	76	77
         102	4	76	78
         103	1	76	79
         104	3	77	79
         105	2	79	80
         106	4	79	81
         107	1	79	82
         108	3	80	82
         109	2	82	83
         110	4	82	84
         111	1	82	85
         112	3	83	85
         113	2	85	86
         114	4	85	87
         115	1	85	88
         116	3	86	88
         117	2	88	89
         118	4	88	90
         119	1	88	91
         120	3	89	91
         121	2	91	92
         122	4	91	93
         123	1	91	94
         124	3	92	94
         125	2	94	95
         126	4	94	96
         127	1	94	97
         128	3	95	97
         129	2	97	98
         130	5	97	99
         131	1	97	100
         132	3	98	100
         133	2	100	101
         134	4	100	102
         135	1	100	103
         136	3	101	103
         137	2	103	104
         138	4	103	105
         139	1	103	106
         140	3	104	106
         141	2	106	107
         142	4	106	108
         143	1	106	109
         144	3	107	109
         145	2	109	110
         146	4	109	111
         147	1	109	112
         148	3	110	112
         149	2	112	113
         150	4	112	114
         151	1	112	115
         152	3	113	115
         153	2	115	116
         154	4	115	117
         155	1	115	118
         156	3	116	118
         157	2	118	119
         158	4	118	120
         159	1	118	121
         160	3	119	121
         161	2	121	122
         162	4	121	123
         163	1	121	124
         164	3	122	124
         165	2	124	125
         166	4	124	126
         167	1	124	127
         168	3	125	127
         169	2	127	128
         170	4	127	129
         171	1	127	130
         172	3	128	130
         173	2	130	131
         174	4	130	132
         175	1	130	133
         176	3	131	133
         177	2	133	134
         178	4	133	135
         179	1	133	136
         180	3	134	136
         181	2	136	137
         182	4	136	138
         183	1	136	139
         184	3	137	139
         185	2	139	140
         186	4	139	141
         187	1	139	142
         188	3	140	142
         189	2	142	143
         190	4	142	144
         191	1	142	145
         192	3	143	145
         193	2	145	146
         194	4	145	147
         195	1	145	148
         196	3	146	148
         197	2	148	149
         198	4	148	150
         199	1	148	151
         200	3	149	151
         201	2	151	152
         202	4	151	153
         203	1	151	154
         204	3	152	154
         205	2	154	155
         206	4	154	156
         207	1	154	157
         208	3	155	157
         209	2	157	158
         210	4	157	159
         211	1	157	160
         212	3	158	160
         213	2	160	161
         214	4	160	162
         215	1	160	163
         216	3	161	163
         217	2	163	164
         218	4	163	165
         219	1	163	166
         220	3	164	166
         221	2	166	167
         222	4	166	168
         223	1	166	169
         224	3	167	169
         225	2	169	170
         226	4	169	171
         227	1	169	172
         228	3	170	172
         229	2	172	173
         230	4	172	174
         231	1	172	175
         232	3	173	175
         233	2	175	176
         234	4	175	177
         235	1	175	178
         236	3	176	178
         237	2	178	179
         238	4	178	180
         239	1	178	181
         240	3	179	181
         241	2	181	182
         242	4	181	183
         243	1	181	184
         244	3	182	184
         245	2	184	185
         246	4	184	186
         247	1	184	187
         248	3	185	187
         249	2	187	188
         250	4	187	189
         251	1	187	190
         252	3	188	190
         253	2	190	191
         254	4	190	192
         255	1	190	193
         256	3	191	193
         257	2	193	194
         258	4	193	195
         259	1	193	196
         260	3	194	196
         261	2	196	197
         262	4	196	198
         263	1	196	199
         264	3	197	199
         265	2	199	200
         266	4	199	201
         267	1	199	202
         268	3	200	202
         269	2	202	203
         270	4	202	204
         271	1	202	205
         272	3	203	205
         273	2	205	206
         274	4	205	207
         275	1	205	208
         276	3	206	208
         277	2	208	209
         278	4	208	210
         279	1	208	211
         280	3	209	211
         281	2	211	212
         282	4	211	213
         283	1	211	214
         284	3	212	214
         285	2	214	215
         286	4	214	216
         287	1	214	217
         288	3	215	217
         289	2	217	218
         290	4	217	219
         291	1	217	220
         292	3	218	220
         293	2	220	221
         294	4	220	222
         295	1	220	223
         296	3	221	223
         297	2	223	224
         298	4	223	225
         299	1	223	226
         300	3	224	226
         301	2	226	227
         302	4	226	228
         303	1	226	229
         304	3	227	229
         305	2	229	230
         306	4	229	231
         307	1	229	232
         308	3	230	232
         309	2	232	233
         310	4	232	234
         311	1	232	235
         312	3	233	235
         313	2	235	236
         314	4	235	237
         315	1	235	238
         316	3	236	238
         317	2	238	239
         318	4	238	240
         319	1	238	241
         320	3	239	241
         321	2	241	242
         322	4	241	243
         323	1	241	244
         324	3	242	244
         325	2	244	245
         326	4	244	246
         327	1	244	247
         328	3	245	247
         329	2	247	248
         330	5	247	249
         331	1	247	250
         332	3	248	250
         333	2	250	251
         334	4	250	252
         335	1	250	253
         336	3	251	253
         337	2	253	254
         338	4	253	255
         339	1	253	256
         340	3	254	256
         341	2	256	257
         342	4	256	258
         343	1	256	259
         344	3	257	259
         345	2	259	260
         346	5	259	261
         347	1	259	262
         348	3	260	262
         349	2	262	263
         350	4	262	264
         351	1	262	265
         352	3	263	265
         353	2	265	266
         354	4	265	267
         355	1	265	268
         356	3	266	268
         357	2	268	269
         358	4	268	270
         359	1	268	271
         360	3	269	271
         361	2	271	272
         362	5	271	273
         363	1	271	274
         364	3	272	274
         365	2	274	275
         366	4	274	276
         367	1	274	277
         368	3	275	277
         369	2	277	278
         370	4	277	279
         371	1	277	280
         372	3	278	280
         373	2	280	281
         374	4	280	282
         375	1	280	283
         376	3	281	283
         377	2	283	284
         378	4	283	285
         379	1	283	286
         380	3	284	286
         381	2	286	287
         382	4	286	288
         383	1	286	289
         384	3	287	289
         385	2	289	290
         386	4	289	291
         387	1	289	292
         388	3	290	292
         389	2	292	293
         390	4	292	294
         391	1	292	295
         392	3	293	295
         393	2	295	296
         394	4	295	297
         395	1	295	298
         396	3	296	298
         397	2	298	299
         398	4	298	300
         399	1	298	301
         400	3	299	301
         401	2	301	302
         402	4	301	303
         403	1	301	304
         404	3	302	304
         405	2	304	305
         406	4	304	306
         407	1	304	307
         408	3	305	307
         409	2	307	308
         410	4	307	309
         411	1	307	310
         412	3	308	310
         413	2	310	311
         414	4	310	312
         415	1	310	313
         416	3	311	313
         417	2	313	314
         418	4	313	315

