ITEM: TIMESTEP
0
ITEM: NUMBER OF ATOMS
315
ITEM: BOX BOUNDS ss ss ss
24.855 55.789
-3.413 25.144
-1.952 29.491
ITEM: ATOMS id type xs ys zs
1 1 0.456908 0.695276 0.817638
2 3 0.50097 0.679868 0.756448
3 4 0.417049 0.724901 0.829088
4 1 0.440228 0.696607 0.695767
5 3 0.441973 0.779739 0.684318
6 4 0.396004 0.685576 0.672932
7 1 0.52431 0.780194 0.647298
8 3 0.518459 0.759814 0.572973
9 4 0.572671 0.77151 0.650097
10 1 0.487069 0.846763 0.54753
11 3 0.546939 0.897223 0.5336
12 4 0.456003 0.887663 0.547912
13 1 0.576324 0.844276 0.463124
14 3 0.533717 0.869524 0.402602
15 4 0.593974 0.796302 0.444996
16 1 0.579459 0.950415 0.388831
17 3 0.621097 0.998599 0.339249
18 4 0.559255 0.995378 0.406641
19 1 0.688951 0.938614 0.332347
20 3 0.711062 0.865917 0.362402
21 4 0.719079 0.977098 0.346882
22 1 0.774843 0.853626 0.2966
23 3 0.819066 0.825437 0.353465
24 4 0.797472 0.857163 0.253729
25 1 0.849357 0.91102 0.380943
26 3 0.85996 0.869629 0.446777
27 4 0.857018 0.963547 0.388417
28 1 0.772257 0.88108 0.472474
29 3 0.77132 0.804216 0.502974
30 4 0.727226 0.902581 0.477467
31 1 0.755964 0.756697 0.42868
32 3 0.803065 0.70326 0.466845
33 4 0.741029 0.743425 0.383583
34 1 0.877384 0.737262 0.424037
35 3 0.912523 0.712155 0.487962
36 4 0.906575 0.764681 0.393951
37 1 0.899366 0.79161 0.531724
38 3 0.893354 0.746017 0.592437
39 4 0.898687 0.843611 0.544795
40 1 0.80717 0.730469 0.590179
41 3 0.828312 0.659803 0.623287
42 4 0.75868 0.728858 0.579906
43 1 0.851458 0.613335 0.551124
44 3 0.907965 0.576566 0.588589
45 4 0.855596 0.594285 0.50609
46 1 0.959397 0.655671 0.591801
47 3 0.974462 0.639073 0.664854
48 4 0.983901 0.697202 0.573323
49 1 0.916888 0.69356 0.700824
50 3 0.903698 0.640053 0.755749
51 4 0.888795 0.735336 0.711541
52 1 0.853462 0.577267 0.714595
53 3 0.870434 0.51427 0.762141
54 4 0.829702 0.547817 0.682187
55 1 0.959688 0.516336 0.745126
56 3 0.950249 0.453549 0.693127
57 5 0.926165 0.493643 0.727547
58 1 0.934894 0.387856 0.754063
59 3 0.873052 0.339391 0.748561
60 4 0.959915 0.35571 0.786057
61 1 0.811728 0.402388 0.763954
62 3 0.810015 0.402528 0.686735
63 4 0.78897 0.44504 0.783131
64 1 0.731558 0.355675 0.682791
65 3 0.693282 0.427601 0.696435
66 4 0.695384 0.319396 0.690201
67 1 0.685718 0.451273 0.613173
68 3 0.662507 0.404174 0.555863
69 4 0.713778 0.483629 0.587698
70 1 0.576227 0.428686 0.561619
71 3 0.552822 0.506286 0.562351
72 4 0.538501 0.408726 0.588144
73 1 0.545936 0.516861 0.474637
74 3 0.501681 0.469587 0.430748
75 4 0.579072 0.530588 0.439589
76 1 0.432404 0.530413 0.434246
77 3 0.429398 0.607102 0.401552
78 4 0.395778 0.542389 0.465509
79 1 0.426392 0.570158 0.318258
80 3 0.35996 0.536611 0.294183
81 4 0.45096 0.546696 0.282511
82 1 0.315704 0.621284 0.309735
83 3 0.338527 0.685436 0.264669
84 4 0.299056 0.631964 0.354928
85 1 0.251859 0.70382 0.238654
86 3 0.180643 0.688027 0.265401
87 4 0.25202 0.685331 0.192952
88 1 0.148316 0.779038 0.248481
89 3 0.0771966 0.747312 0.246859
90 4 0.149383 0.830479 0.23258
91 1 0.0837589 0.709949 0.164711
92 3 0.051432 0.630038 0.159845
93 4 0.0933277 0.714186 0.117069
94 1 0.103834 0.595231 0.220208
95 3 0.0846964 0.603005 0.292975
96 4 0.150482 0.5849 0.228986
97 1 0.00552785 0.556361 0.283338
98 3 0.0181031 0.530063 0.353211
99 5 0.0374022 0.541267 0.280308
100 1 0.0604836 0.447876 0.334478
101 3 0.102444 0.456526 0.397926
102 4 0.0756449 0.408516 0.305791
103 1 0.154878 0.529642 0.367713
104 3 0.150546 0.560703 0.437776
105 4 0.180837 0.562629 0.337659
106 1 0.068339 0.60395 0.425309
107 3 0.0502683 0.581714 0.49709
108 4 0.0308075 0.631194 0.407436
109 1 0.0176828 0.49571 0.4747
110 3 0.0395681 0.464334 0.542919
111 4 0.00129308 0.452849 0.450402
112 1 0.125234 0.458031 0.524727
113 3 0.183811 0.481563 0.571638
114 4 0.155072 0.424449 0.500493
115 1 0.171203 0.575866 0.563973
116 3 0.199748 0.575831 0.634736
117 4 0.155234 0.624365 0.55052
118 1 0.124071 0.562244 0.678211
119 3 0.167324 0.521133 0.727348
120 4 0.0767117 0.562349 0.685017
121 1 0.166774 0.437371 0.688834
122 3 0.239219 0.433344 0.713895
123 4 0.15352 0.395245 0.663359
124 1 0.275716 0.483069 0.647362
125 3 0.325079 0.506741 0.703654
126 4 0.282796 0.509437 0.604141
127 1 0.275587 0.579263 0.731228
128 3 0.302062 0.551178 0.79668
129 4 0.244294 0.621074 0.732055
130 1 0.240092 0.490738 0.818402
131 3 0.299153 0.458977 0.858633
132 4 0.200168 0.459327 0.817797
133 1 0.338365 0.416185 0.790796
134 3 0.403472 0.422278 0.828483
135 4 0.349227 0.394684 0.748497
136 1 0.416403 0.515145 0.809592
137 3 0.44957 0.533775 0.877524
138 4 0.418472 0.562629 0.786216
139 1 0.375218 0.526841 0.922558
140 3 0.39303 0.480653 0.982031
141 4 0.332062 0.546696 0.93264
142 1 0.373569 0.398186 0.942658
143 3 0.438934 0.373394 0.975257
144 4 0.346965 0.364744 0.917152
145 1 0.489882 0.383864 0.904716
146 3 0.526476 0.450187 0.871545
147 4 0.501746 0.354624 0.864517
148 1 0.56294 0.478061 0.950227
149 3 0.632476 0.500858 0.923862
150 4 0.565624 0.48503 0.998728
151 1 0.662831 0.414819 0.911872
152 3 0.695384 0.38628 0.846548
153 4 0.681321 0.373744 0.937347
154 1 0.632573 0.420632 0.791877
155 3 0.601991 0.496936 0.800528
156 4 0.595914 0.387821 0.776675
157 1 0.631344 0.536786 0.726712
158 3 0.603737 0.50415 0.663073
159 4 0.675697 0.557376 0.710746
160 1 0.532068 0.560808 0.657952
161 3 0.524504 0.64373 0.65385
162 4 0.487037 0.551914 0.678847
163 1 0.539212 0.642715 0.563496
164 3 0.485194 0.603285 0.522183
165 4 0.58085 0.639353 0.539357
166 1 0.455357 0.682355 0.482206
167 3 0.488976 0.75309 0.454728
168 4 0.41262 0.701194 0.500684
169 1 0.483384 0.723956 0.369653
170 3 0.423159 0.691704 0.334605
171 4 0.516939 0.696117 0.343351
172 1 0.391349 0.77263 0.302897
173 3 0.437932 0.811115 0.250262
174 4 0.364195 0.815352 0.314569
175 1 0.428525 0.739503 0.188341
176 3 0.452382 0.795777 0.136278
177 4 0.412976 0.694926 0.164711
178 1 0.376414 0.848759 0.142353
179 3 0.421801 0.915958 0.134148
180 4 0.328312 0.86231 0.150495
181 1 0.449667 0.929404 0.212639
182 3 0.522241 0.947018 0.193366
183 4 0.450992 0.941731 0.259517
184 1 0.550333 0.856147 0.203988
185 3 0.566496 0.782925 0.170594
186 4 0.566432 0.830865 0.243838
187 1 0.54613 0.81262 0.0897497
188 3 0.594782 0.755016 0.0633209
189 4 0.531195 0.842631 0.0523487
190 1 0.671623 0.799979 0.0904176
191 3 0.690373 0.719543 0.0999587
192 4 0.701914 0.839899 0.104793
193 1 0.67505 0.721714 0.189359
194 3 0.660277 0.639878 0.174951
195 4 0.663897 0.74171 0.234329
196 1 0.57571 0.656021 0.141844
197 3 0.594362 0.586966 0.102598
198 4 0.533814 0.681024 0.128614
199 1 0.636096 0.631509 0.0344751
200 3 0.684231 0.56403 0.0345705
201 4 0.651257 0.668102 0.00127214
202 1 0.740771 0.598032 0.0943612
203 3 0.754283 0.51539 0.1088
204 4 0.764337 0.630038 0.126069
205 1 0.687852 0.507266 0.166396
206 3 0.646376 0.43576 0.152498
207 4 0.665255 0.523549 0.207582
208 1 0.625752 0.463319 0.0685685
209 3 0.571863 0.403579 0.081608
210 4 0.654264 0.423119 0.0526349
211 1 0.514903 0.470007 0.114875
212 3 0.488556 0.485275 0.0452883
213 4 0.501002 0.513639 0.140826
214 1 0.430723 0.407256 0.0476418
215 3 0.356663 0.434219 0.0360335
216 4 0.43887 0.355009 0.0366695
217 1 0.326599 0.390972 0.110581
218 3 0.354173 0.432538 0.170372
219 4 0.31509 0.341387 0.121426
220 1 0.271481 0.462479 0.197341
221 3 0.221698 0.401513 0.21302
222 4 0.242161 0.501628 0.185192
223 1 0.295791 0.447911 0.287536
224 3 0.321426 0.369121 0.279299
225 4 0.283701 0.459047 0.332602
226 1 0.40761 0.394579 0.290271
227 3 0.429042 0.443849 0.347327
228 4 0.439549 0.40617 0.25322
229 1 0.467996 0.370592 0.393029
230 3 0.514192 0.310117 0.365932
231 4 0.447598 0.343734 0.430939
232 1 0.589739 0.359737 0.384887
233 3 0.595138 0.392373 0.453996
234 4 0.615989 0.392968 0.357409
235 1 0.655007 0.321813 0.47928
236 3 0.720696 0.306755 0.446109
237 4 0.643434 0.271982 0.494005
238 1 0.770964 0.363098 0.501542
239 3 0.774326 0.36611 0.579016
240 4 0.78189 0.414224 0.489457
241 1 0.856792 0.325629 0.580479
242 3 0.919312 0.322338 0.534936
243 4 0.855596 0.273558 0.590274
244 1 0.960497 0.397241 0.577044
245 3 0.998707 0.40596 0.509939
246 4 0.995054 0.360752 0.58932
247 1 0.932631 0.450222 0.469707
248 3 0.923838 0.420983 0.400089
249 5 0.932405 0.468753 0.422304
250 1 0.919668 0.328676 0.417899
251 3 0.851361 0.31733 0.449639
252 4 0.942199 0.283818 0.431447
253 1 0.80523 0.302168 0.377222
254 3 0.823851 0.222082 0.365773
255 4 0.786352 0.312358 0.332793
256 1 0.776524 0.189551 0.434214
257 3 0.725674 0.12841 0.43097
258 4 0.786287 0.184053 0.48316
259 1 0.657561 0.176209 0.399548
260 3 0.642723 0.252863 0.375314
261 5 0.699651 0.13126 0.382613
262 1 0.566076 0.230241 0.334478
263 3 0.529644 0.159786 0.313138
264 4 0.588382 0.24691 0.293833
265 1 0.450508 0.200966 0.304774
266 3 0.423902 0.279056 0.313901
267 4 0.42817 0.164023 0.333174
268 1 0.353656 0.261582 0.256369
269 3 0.305069 0.201107 0.27526
270 4 0.350423 0.263998 0.207137
271 1 0.237312 0.263963 0.296187
272 3 0.259035 0.277235 0.369812
273 5 0.280209 0.234778 0.266902
274 1 0.177281 0.301817 0.395382
275 3 0.125364 0.255559 0.438063
276 4 0.142109 0.339251 0.39147
277 1 0.186138 0.186434 0.455395
278 3 0.246977 0.199916 0.500843
279 4 0.208347 0.146479 0.431861
280 1 0.193864 0.212627 0.574341
281 3 0.248626 0.180516 0.620456
282 4 0.154038 0.22723 0.600293
283 1 0.225027 0.0901705 0.611965
284 3 0.301319 0.0832721 0.618707
285 4 0.198907 0.0437021 0.606812
286 1 0.317903 0.0786147 0.533314
287 3 0.384981 0.113457 0.553669
288 4 0.312148 0.0749729 0.485195
289 1 0.355531 0.203138 0.562637
290 3 0.417017 0.19869 0.609102
291 4 0.327342 0.24691 0.563273
292 1 0.367654 0.174248 0.677512
293 3 0.425002 0.123542 0.703781
294 4 0.327471 0.175824 0.707598
295 1 0.403084 0.0494099 0.652132
296 3 0.479311 0.0355079 0.658111
297 4 0.379485 0.0168435 0.621728
298 1 0.502134 0.0936023 0.587031
299 3 0.568953 0.115628 0.621855
300 4 0.496864 0.11962 0.543937
301 1 0.530323 0.185209 0.672868
302 3 0.586216 0.151592 0.717393
303 4 0.496573 0.220401 0.692905
304 1 0.535204 0.0882796 0.755749
305 3 0.591065 0.0341422 0.76125
306 4 0.498869 0.057394 0.774449
307 1 0.605321 0.0185944 0.676399
308 3 0.682679 0.023707 0.681074
309 4 0.591711 0.00140071 0.633082
310 1 0.689985 0.113177 0.655885
311 3 0.739801 0.162447 0.69071
312 4 0.687237 0.147214 0.617721
313 1 0.696741 0.168925 0.766625
314 3 0.73673 0.100116 0.785008
315 4 0.658272 0.175824 0.79916
