LAMMPS protain data file

         189  atoms
         250  bonds
           0  angles
           0  dihedrals
           0  impropers

           5  atom types
           5  bond types
           0  angle types
           0  dihedral types
           0  improper types

-200.0	200.0	xlo xhi
-200.0	200.0	ylo yhi
-200.0	200.0	zlo zhi

Masses

           1	27.0
           2	14.0
           3	28.0
           4	60.0
           5	60.0

Atoms

           1	1	1	1	0.0	9.17800045	18.62400055	-0.28799999
           2	1	1	3	0.0	9.29300022	17.01499939	1.50899994
           3	1	1	4	0.0	8.03899956	19.64100075	-0.29699999
           4	1	2	1	0.0	10.43799973	18.78100014	3.3039999
           5	1	2	3	0.0	9.84599972	21.03300095	3.88199997
           6	1	2	4	0.0	11.95300007	18.62400055	3.48200011
           7	1	3	1	0.0	9.39099979	20.36000061	6.60099983
           8	1	3	3	0.0	11.09599972	19.41399956	7.99100018
           9	1	3	4	0.0	8.18599987	19.83200073	7.38500023
          10	1	4	1	0.0	12.10700035	21.85199928	8.7869997
          11	1	4	3	0.0	10.56700039	23.19099998	10.11999989
          12	1	4	4	0.0	13.14400005	22.80400085	8.18799973
          13	1	5	1	0.0	11.56000042	22.31200027	12.5170002
          14	1	5	3	0.0	13.28999996	20.94499969	13.42199993
          15	1	5	4	0.0	10.1420002	21.74900055	12.75500011
          16	1	6	1	0.0	13.24100018	22.13299942	15.87899971
          17	1	6	3	0.0	11.28899956	21.9109993	17.24200058
          18	1	6	4	0.0	13.93599987	23.375	16.45100021
          19	1	7	1	0.0	12.07699966	19.62999916	18.43600082
          20	1	7	3	0.0	14.0010004	18.47900009	19.24099922
          21	1	7	4	0.0	11.30500031	18.48200035	17.77599907
          22	1	8	1	0.0	13.47799969	19.15399933	21.92499924
          23	1	8	3	0.0	15.79399967	18.48999977	21.81100082
          24	1	8	4	0.0	13.23600006	17.67300034	22.2859993
          25	1	9	1	0.0	16.70000076	20.97900009	21.06500053
          26	1	9	3	0.0	18.62999916	20.43899918	19.75200081
          27	1	9	5	0.0	15.30700016	20.3839987	20.2402034
          28	1	10	1	0.0	17.26199913	19.02099991	17.8409996
          29	1	10	3	0.0	15.43400002	19.76399994	16.49600029
          30	1	10	4	0.0	17.12800026	17.4810009	17.95700073
          31	1	11	1	0.0	16.97200012	20.15399933	14.22900009
          32	1	11	3	0.0	17.08300018	17.88400078	13.42399979
          33	1	11	4	0.0	18.11000061	20.76799965	13.43500042
          34	1	12	1	0.0	14.62899971	17.99900055	12.14000034
          35	1	12	3	0.0	14.05099964	19.71800041	10.53199959
          36	1	12	4	0.0	13.31400013	17.5720005	12.80799961
          37	1	13	1	0.0	13.88000011	17.9659996	8.41100025
          38	1	13	3	0.0	13.88000011	15.72000027	7.58500004
          39	1	13	4	0.0	15.08600044	18.36300087	7.55600023
          40	1	14	1	0.0	11.1420002	15.57199955	7.3670001
          41	1	14	3	0.0	9.78600025	16.73800087	5.7329998
          42	1	14	4	0.0	10.09899998	15.23799992	8.47500038
          43	1	15	1	0.0	9.95699978	14.70800018	3.85299993
          44	1	15	3	0.0	7.89900017	14.03899956	4.9000001
          45	1	15	4	0.0	10.31200027	13.43900013	3.0710001
          46	1	16	1	0.0	6.31500006	15.72000027	3.53800011
          47	1	16	3	0.0	4.54300022	14.19299984	3.94300008
          48	1	16	4	0.0	5.69899988	16.97400093	2.81800008
          49	1	17	1	0.0	5.45699978	12.22500038	2.23399997
          50	1	17	3	0.0	4.43300009	10.52400017	3.59100008
          51	1	17	4	0.0	6.3499999	11.4119997	1.29200006
          52	1	18	1	0.0	6.13399982	10.96000004	5.74499989
          53	1	18	3	0.0	4.9460001	10.88599968	7.82399988
          54	1	18	4	0.0	7.52799988	10.9289999	6.34700012
          55	1	19	1	0.0	3.671	13.30700016	7.48400021
          56	1	19	3	0.0	1.77100003	12.16899967	6.5630002
          57	1	19	4	0.0	3.24000001	14.77499962	7.08599997
          58	1	20	1	0.0	1.03600001	11.1420002	9.06400013
          59	1	20	3	0.0	-1.22300005	11.85499954	8.58300018
          60	1	20	4	0.0	1.421	10.19499969	10.20800018
          61	1	21	1	0.0	-1.47300005	13.47900009	10.71500015
          62	1	21	3	0.0	0.094	15.19200039	11.31299973
          63	1	21	4	0.0	-2.07299995	12.93700027	12.0170002
          64	1	22	1	0.0	-1.648	17.30200005	10.79699993
          65	1	22	3	0.0	-4.05700016	17.68499947	10.91499996
          66	1	22	4	0.0	-0.96200001	18.04100037	9.56200027
          67	1	23	1	0.0	-3.82399988	19.6760006	12.8380003
          68	1	23	3	0.0	-2.13000011	21.32900047	13.27700043
          69	1	23	4	0.0	-4.4460001	18.91600037	14.04699993
          70	1	24	1	0.0	-4.01800013	23.37199974	13.75300026
          71	1	24	3	0.0	-5.30900002	23.20999908	15.78899956
          72	1	24	4	0.0	-4.8829999	24.31699944	12.89299965
          73	1	25	1	0.0	-3.54500008	24.77799988	17.28800011
          74	1	25	3	0.0	-2.09200001	26.70800018	17.5
          75	1	25	4	0.0	-2.56299996	24.04700089	18.22400093
          76	1	26	1	0.0	-4.05200005	28.51799965	16.80699921
          77	1	26	3	0.0	-3.57999992	28.37700081	14.50199986
          78	1	26	5	0.0	-4.23099995	27.89682889	16.40915953
          79	1	27	1	0.0	-1.12199998	29.71199989	14.70199966
          80	1	27	3	0.0	0.713	28.65200043	13.55799961
          81	1	27	4	0.0	-0.33399999	30.9810009	15.03600025
          82	1	28	1	0.0	0.745	26.44400024	15.28600025
          83	1	28	3	0.0	-1.00600004	24.97800064	14.52499962
          84	1	28	4	0.0	1.01300001	25.9470005	16.7159996
          85	1	29	1	0.0	0.63800001	23.67700005	12.68700027
          86	1	29	3	0.0	2.58400011	22.45700073	13.3380003
          87	1	29	4	0.0	1.153	23.84700012	11.24699974
          88	1	30	1	0.0	1.13199997	20.4489994	14.64700031
          89	1	30	3	0.0	-0.011	18.98699951	13.15200043
          90	1	30	4	0.0	0.43399999	20.34300041	16.01099968
          91	1	31	1	0.0	1.79799998	17.0170002	13.1260004
          92	1	31	3	0.0	3.40400004	15.96100044	14.60900021
          93	1	31	4	0.0	2.2650001	17.29700089	11.66499996
          94	1	32	1	0.0	2.99399996	13.40999985	13.48499966
          95	1	32	3	0.0	3.08500004	13.28199959	11.06299973
          96	1	32	4	0.0	2.0250001	12.32999992	14.0340004
          97	1	33	1	0.0	5.24300003	11.61900043	10.99699974
          98	1	33	3	0.0	6.09399986	9.86200047	12.38599968
          99	1	33	4	0.0	6.27799988	12.63399982	10.50399971
         100	1	34	1	0.0	6.62300014	8.15200043	10.27400017
         101	1	34	3	0.0	8.79100037	8.91499996	9.58699989
         102	1	34	4	0.0	6.30700016	7.30299997	9.04800034
         103	1	35	1	0.0	10.09599972	7.4000001	11.52400017
         104	1	35	3	0.0	9.63899994	5.09299994	11.14700031
         105	1	35	4	0.0	10.42599964	7.76399994	12.94299984
         106	1	36	1	0.0	12.3210001	4.36899996	11.4630003
         107	1	36	3	0.0	11.18000031	4.08599997	13.52900028
         108	1	36	5	0.0	11.77600002	3.32634482	9.91514672
         109	1	37	1	0.0	11.60000038	1.35099995	13.63799953
         110	1	37	3	0.0	9.68900013	0.87400001	15.00599957
         111	1	37	5	0.0	12.01200008	0.48716544	13.62543187
         112	1	38	1	0.0	7.86299992	1.57500005	13.05799961
         113	1	38	3	0.0	6.26800013	2.42700005	14.65200043
         114	1	38	5	0.0	9.30799961	0.80789547	11.73522527
         115	1	39	1	0.0	7.74499989	4.65199995	15.26500034
         116	1	39	3	0.0	7.28700018	6.1329999	13.42500019
         117	1	39	4	0.0	8.88799953	5.01300001	16.20499992
         118	1	40	1	0.0	5.85200024	7.94299984	15.06000042
         119	1	40	3	0.0	6.47599983	9.16499996	17.05400085
         120	1	40	4	0.0	4.33799982	7.88800001	15.27900028
         121	1	41	1	0.0	7.57299995	11.31599998	15.58199978
         122	1	41	3	0.0	5.47800016	12.30799961	15.02000046
         123	1	41	5	0.0	6.9920001	11.0593662	15.08736313
         124	1	42	1	0.0	5.8920002	14.64900017	16.5189991
         125	1	42	3	0.0	7.88999987	15.98999977	16.24399948
         126	1	42	4	0.0	5.45100021	14.83600044	17.9659996
         127	1	43	1	0.0	6.57499981	18.1060009	15.12100029
         128	1	43	3	0.0	4.38700008	18.98999977	14.91800022
         129	1	43	5	0.0	5.92999983	17.41640864	13.82367995
         130	1	44	1	0.0	5.16900015	21.63500023	14.91499996
         131	1	44	3	0.0	7.14599991	22.97900009	14.52299976
         132	1	44	4	0.0	4.63500023	22.01300049	16.27700043
         133	1	45	1	0.0	5.86299992	24.76399994	12.91800022
         134	1	45	3	0.0	3.68099999	25.70100021	13.1590004
         135	1	45	4	0.0	6.30499983	24.5359993	11.45400047
         136	1	46	1	0.0	4.53800011	28.25300026	12.67800045
         137	1	46	3	0.0	4.36499977	27.72900009	10.32499981
         138	1	46	4	0.0	5.42700005	29.49099922	12.7510004
         139	1	47	1	0.0	1.75100005	28.71500015	10.05000019
         140	1	47	3	0.0	2.22000003	29.53899956	7.82700014
         141	1	47	4	0.0	0.37400001	29.29400063	10.32900047
         142	1	48	1	0.0	3.90499997	31.56299973	8.74199963
         143	1	48	3	0.0	5.11499977	31.00200081	6.76300001
         144	1	48	4	0.0	4.53000021	32.63800049	9.62899971
         145	1	49	1	0.0	6.63899994	28.97699928	8.09000015
         146	1	49	3	0.0	6.21400023	28.13299942	5.84000015
         147	1	49	4	0.0	7.21600008	28.09900093	9.22099972
         148	1	50	1	0.0	4.29899979	26.21699905	6.87400007
         149	1	50	3	0.0	3.6789999	26.85000038	4.63500023
         150	1	50	4	0.0	2.87599993	26.36199951	7.375
         151	1	51	1	0.0	4.921	24.73200035	3.40799999
         152	1	51	3	0.0	2.62899995	24.06299973	3.79699993
         153	1	51	4	0.0	5.6420002	23.3920002	3.29999995
         154	1	52	1	0.0	1.72399998	24.85300064	1.30400002
         155	1	52	3	0.0	0.105	23.09000015	1.42799997
         156	1	52	4	0.0	1.52900004	25.58499908	-0.032
         157	1	53	1	0.0	1.92299998	21.05599976	0.84500003
         158	1	53	3	0.0	0.336	19.88899994	2.2349999
         159	1	53	4	0.0	3.21000004	20.29299927	0.44999999
         160	1	54	1	0.0	1.53699994	20.63699913	4.64900017
         161	1	54	3	0.0	-0.70499998	20.65500069	5.53700018
         162	1	54	4	0.0	2.57200003	21.11000061	5.65999985
         163	1	55	1	0.0	-1.16400003	23.27400017	4.92199993
         164	1	55	3	0.0	-3.5079999	22.69599915	4.66599989
         165	1	55	4	0.0	-0.97600001	24.72500038	4.55900002
         166	1	56	1	0.0	-3.11400008	21.58200073	2.07999992
         167	1	56	3	0.0	-4.77099991	19.91699982	2.58999991
         168	1	56	4	0.0	-2.51799989	21.27599907	0.713
         169	1	57	1	0.0	-3.03500009	18.33200073	4.00600004
         170	1	57	3	0.0	-4.98400021	17.8220005	5.27299976
         171	1	57	4	0.0	-1.80400002	17.66200066	4.62200022
         172	1	58	1	0.0	-4.82200003	20.12400055	6.83500004
         173	1	58	3	0.0	-7.079	19.40099907	6.59899998
         174	1	58	4	0.0	-4.46400023	21.50499916	7.37599993
         175	1	59	1	0.0	-7.6960001	21.24900055	4.61999989
         176	1	59	3	0.0	-9.3760004	19.61899948	4.09200001
         177	1	59	4	0.0	-7.625	22.36000061	3.56100011
         178	1	60	1	0.0	-7.64799976	17.90800095	2.8039999
         179	1	60	3	0.0	-8.04500008	15.60599995	3.31699991
         180	1	60	4	0.0	-6.71299982	17.61899948	1.62600005
         181	1	61	1	0.0	-7.50500011	15.85200024	5.99800014
         182	1	61	3	0.0	-9.60299969	15.95800018	7.12900019
         183	1	61	4	0.0	-6.11999989	15.41899967	6.51300001
         184	1	62	1	0.0	-8.64599991	17.54000092	9.23700047
         185	1	62	3	0.0	-10.18999958	16.48500061	10.75599957
         186	1	62	4	0.0	-9.79399967	18.45599937	8.80000019
         187	1	63	1	0.0	-8.89599991	13.97599983	10.58899975
         188	1	63	3	0.0	-6.51200008	13.71700001	10.72999954
         189	1	63	4	0.0	-9.70400047	13.06799984	9.64900017

Bond Coeffs

           1	200.0	3.77
           2	200.0	2.41
           3	200.0	2.50
           4	200.0	1.54
           5	200.0	1.54
Bonds

           1	2	1	2
           2	4	1	3
           3	1	1	4
           4	3	2	4
           5	2	4	5
           6	4	4	6
           7	1	4	7
           8	3	5	7
           9	2	7	8
          10	4	7	9
          11	1	7	10
          12	3	8	10
          13	2	10	11
          14	4	10	12
          15	1	10	13
          16	3	11	13
          17	2	13	14
          18	4	13	15
          19	1	13	16
          20	3	14	16
          21	2	16	17
          22	4	16	18
          23	1	16	19
          24	3	17	19
          25	2	19	20
          26	4	19	21
          27	1	19	22
          28	3	20	22
          29	2	22	23
          30	4	22	24
          31	1	22	25
          32	3	23	25
          33	2	25	26
          34	5	25	27
          35	1	25	28
          36	3	26	28
          37	2	28	29
          38	4	28	30
          39	1	28	31
          40	3	29	31
          41	2	31	32
          42	4	31	33
          43	1	31	34
          44	3	32	34
          45	2	34	35
          46	4	34	36
          47	1	34	37
          48	3	35	37
          49	2	37	38
          50	4	37	39
          51	1	37	40
          52	3	38	40
          53	2	40	41
          54	4	40	42
          55	1	40	43
          56	3	41	43
          57	2	43	44
          58	4	43	45
          59	1	43	46
          60	3	44	46
          61	2	46	47
          62	4	46	48
          63	1	46	49
          64	3	47	49
          65	2	49	50
          66	4	49	51
          67	1	49	52
          68	3	50	52
          69	2	52	53
          70	4	52	54
          71	1	52	55
          72	3	53	55
          73	2	55	56
          74	4	55	57
          75	1	55	58
          76	3	56	58
          77	2	58	59
          78	4	58	60
          79	1	58	61
          80	3	59	61
          81	2	61	62
          82	4	61	63
          83	1	61	64
          84	3	62	64
          85	2	64	65
          86	4	64	66
          87	1	64	67
          88	3	65	67
          89	2	67	68
          90	4	67	69
          91	1	67	70
          92	3	68	70
          93	2	70	71
          94	4	70	72
          95	1	70	73
          96	3	71	73
          97	2	73	74
          98	4	73	75
          99	1	73	76
         100	3	74	76
         101	2	76	77
         102	5	76	78
         103	1	76	79
         104	3	77	79
         105	2	79	80
         106	4	79	81
         107	1	79	82
         108	3	80	82
         109	2	82	83
         110	4	82	84
         111	1	82	85
         112	3	83	85
         113	2	85	86
         114	4	85	87
         115	1	85	88
         116	3	86	88
         117	2	88	89
         118	4	88	90
         119	1	88	91
         120	3	89	91
         121	2	91	92
         122	4	91	93
         123	1	91	94
         124	3	92	94
         125	2	94	95
         126	4	94	96
         127	1	94	97
         128	3	95	97
         129	2	97	98
         130	4	97	99
         131	1	97	100
         132	3	98	100
         133	2	100	101
         134	4	100	102
         135	1	100	103
         136	3	101	103
         137	2	103	104
         138	4	103	105
         139	1	103	106
         140	3	104	106
         141	2	106	107
         142	5	106	108
         143	1	106	109
         144	3	107	109
         145	2	109	110
         146	5	109	111
         147	1	109	112
         148	3	110	112
         149	2	112	113
         150	5	112	114
         151	1	112	115
         152	3	113	115
         153	2	115	116
         154	4	115	117
         155	1	115	118
         156	3	116	118
         157	2	118	119
         158	4	118	120
         159	1	118	121
         160	3	119	121
         161	2	121	122
         162	5	121	123
         163	1	121	124
         164	3	122	124
         165	2	124	125
         166	4	124	126
         167	1	124	127
         168	3	125	127
         169	2	127	128
         170	5	127	129
         171	1	127	130
         172	3	128	130
         173	2	130	131
         174	4	130	132
         175	1	130	133
         176	3	131	133
         177	2	133	134
         178	4	133	135
         179	1	133	136
         180	3	134	136
         181	2	136	137
         182	4	136	138
         183	1	136	139
         184	3	137	139
         185	2	139	140
         186	4	139	141
         187	1	139	142
         188	3	140	142
         189	2	142	143
         190	4	142	144
         191	1	142	145
         192	3	143	145
         193	2	145	146
         194	4	145	147
         195	1	145	148
         196	3	146	148
         197	2	148	149
         198	4	148	150
         199	1	148	151
         200	3	149	151
         201	2	151	152
         202	4	151	153
         203	1	151	154
         204	3	152	154
         205	2	154	155
         206	4	154	156
         207	1	154	157
         208	3	155	157
         209	2	157	158
         210	4	157	159
         211	1	157	160
         212	3	158	160
         213	2	160	161
         214	4	160	162
         215	1	160	163
         216	3	161	163
         217	2	163	164
         218	4	163	165
         219	1	163	166
         220	3	164	166
         221	2	166	167
         222	4	166	168
         223	1	166	169
         224	3	167	169
         225	2	169	170
         226	4	169	171
         227	1	169	172
         228	3	170	172
         229	2	172	173
         230	4	172	174
         231	1	172	175
         232	3	173	175
         233	2	175	176
         234	4	175	177
         235	1	175	178
         236	3	176	178
         237	2	178	179
         238	4	178	180
         239	1	178	181
         240	3	179	181
         241	2	181	182
         242	4	181	183
         243	1	181	184
         244	3	182	184
         245	2	184	185
         246	4	184	186
         247	1	184	187
         248	3	185	187
         249	2	187	188
         250	4	187	189

