ITEM: TIMESTEP
0
ITEM: NUMBER OF ATOMS
189
ITEM: BOX BOUNDS ss ss ss
-10.23 18.67
0.447165 32.678
-0.337 22.326
ITEM: ATOMS id type xs ys zs
1 1 0.671557 0.563958 0.00216211
2 3 0.675536 0.514037 0.0814544
3 4 0.632145 0.595512 0.00176499
4 1 0.715156 0.568829 0.160658
5 3 0.694671 0.6387 0.186162
6 4 0.767578 0.563958 0.168513
7 1 0.678927 0.617819 0.306138
8 3 0.737924 0.588469 0.367471
9 4 0.637232 0.601438 0.340732
10 1 0.772907 0.66411 0.402595
11 3 0.719619 0.705655 0.461413
12 4 0.808789 0.693647 0.376164
13 1 0.753979 0.678383 0.56718
14 3 0.813841 0.63597 0.607113
15 4 0.704914 0.660915 0.577682
16 1 0.812145 0.672829 0.715528
17 3 0.744602 0.665941 0.77567
18 4 0.836194 0.711363 0.740767
19 1 0.771869 0.59517 0.828355
20 3 0.838443 0.559459 0.863875
21 4 0.745156 0.559552 0.799232
22 1 0.820346 0.580402 0.982306
23 3 0.900484 0.5598 0.977276
24 4 0.811972 0.534452 0.998235
25 1 0.931834 0.637025 0.944359
26 3 0.998616 0.62027 0.886423
27 5 0.883633 0.618564 0.907965
28 1 0.95128 0.576275 0.8021
29 3 0.888028 0.599328 0.742753
30 4 0.946644 0.528495 0.807219
31 1 0.941246 0.611428 0.642722
32 3 0.945087 0.540999 0.607201
33 4 0.980623 0.630478 0.607687
34 1 0.860173 0.544567 0.550545
35 3 0.840173 0.597901 0.479592
36 4 0.814671 0.531318 0.58002
37 1 0.834256 0.543543 0.386004
38 3 0.834256 0.473858 0.349557
39 4 0.875986 0.55586 0.348277
40 1 0.739516 0.469266 0.339937
41 3 0.692595 0.505443 0.267837
42 4 0.703426 0.458903 0.388828
43 1 0.698512 0.442459 0.184883
44 3 0.627301 0.421703 0.231082
45 4 0.710796 0.403087 0.150377
46 1 0.572491 0.473858 0.170984
47 3 0.511176 0.426481 0.188854
48 4 0.551176 0.512765 0.139214
49 1 0.542803 0.365421 0.113445
50 3 0.50737 0.312646 0.173322
51 4 0.573702 0.340197 0.0718793
52 1 0.566228 0.326173 0.268367
53 3 0.525121 0.323877 0.360102
54 4 0.614464 0.325211 0.29493
55 1 0.481003 0.398992 0.3451
56 3 0.41526 0.363684 0.304461
57 4 0.46609 0.444538 0.327538
58 1 0.389827 0.33182 0.414817
59 3 0.311661 0.353942 0.393593
60 4 0.403149 0.302438 0.465296
61 1 0.30301 0.404328 0.487667
62 3 0.357232 0.457476 0.514054
63 4 0.282249 0.387512 0.545118
64 1 0.296955 0.522941 0.491285
65 3 0.213599 0.534824 0.496492
66 4 0.320692 0.54587 0.436791
67 1 0.221661 0.596597 0.581344
68 3 0.280277 0.647884 0.600715
69 4 0.200138 0.573018 0.634691
70 1 0.214948 0.71127 0.621718
71 3 0.170277 0.706244 0.711556
72 4 0.185017 0.74059 0.583771
73 1 0.231315 0.754893 0.777699
74 3 0.281592 0.814774 0.787054
75 4 0.265294 0.732213 0.819
76 1 0.213772 0.870931 0.756475
77 3 0.230104 0.866556 0.654768
78 5 0.207578 0.851658 0.738921
79 1 0.315156 0.907976 0.663593
80 3 0.378651 0.875089 0.613114
81 4 0.342422 0.947349 0.67833
82 1 0.379758 0.806583 0.689362
83 3 0.31917 0.761098 0.655783
84 4 0.389031 0.791163 0.75246
85 1 0.376055 0.720733 0.574681
86 3 0.443391 0.682881 0.603406
87 4 0.393875 0.726008 0.511142
88 1 0.393149 0.620581 0.661166
89 3 0.353599 0.57522 0.595199
90 4 0.368997 0.617292 0.721352
91 1 0.416194 0.514099 0.594052
92 3 0.471765 0.481335 0.659489
93 4 0.432353 0.522786 0.529586
94 1 0.457578 0.402187 0.609893
95 3 0.460727 0.398216 0.503023
96 4 0.424048 0.368679 0.634117
97 1 0.535398 0.346619 0.50011
98 3 0.564844 0.292106 0.5614
99 4 0.571211 0.378111 0.478357
100 1 0.583149 0.239052 0.468208
101 3 0.658166 0.262725 0.437894
102 4 0.572215 0.21271 0.414111
103 1 0.703322 0.21572 0.523364
104 3 0.687509 0.144143 0.506729
105 4 0.71474 0.227013 0.585977
106 1 0.780311 0.12168 0.520672
107 3 0.74083 0.112899 0.611834
108 5 0.761453 0.08933 0.452374
109 1 0.755363 0.0280425 0.616644
110 3 0.689239 0.0132431 0.677007
111 5 0.769619 0.00124105 0.616089
112 1 0.626055 0.0349924 0.591051
113 3 0.570865 0.0614267 0.661386
114 5 0.676055 0.0111921 0.532684
115 1 0.621972 0.13046 0.688435
116 3 0.606125 0.17641 0.607245
117 4 0.661522 0.14166 0.729912
118 1 0.556471 0.232567 0.679389
119 3 0.578062 0.270481 0.767374
120 4 0.504083 0.230861 0.689053
121 1 0.616021 0.337219 0.702422
122 3 0.543529 0.367996 0.677624
123 5 0.595917 0.329256 0.680597
124 1 0.557855 0.440629 0.743767
125 3 0.62699 0.482235 0.731633
126 4 0.542595 0.446431 0.807616
127 1 0.581488 0.547886 0.682081
128 3 0.505779 0.575313 0.673124
129 5 0.55917 0.526491 0.624837
130 1 0.532837 0.657378 0.672991
131 3 0.601246 0.699077 0.655694
132 4 0.51436 0.669106 0.733089
133 1 0.556851 0.754459 0.584874
134 3 0.481349 0.78353 0.595508
135 4 0.572145 0.747385 0.520275
136 1 0.511003 0.862709 0.574284
137 3 0.505017 0.846451 0.470458
138 4 0.541765 0.901119 0.577505
139 1 0.414567 0.877043 0.458324
140 3 0.430796 0.902609 0.360235
141 4 0.36692 0.895007 0.470635
142 1 0.4891 0.965406 0.400609
143 3 0.530969 0.948 0.313286
144 4 0.510727 0.998759 0.439748
145 1 0.583702 0.885172 0.37184
146 3 0.568997 0.858986 0.272559
147 4 0.603668 0.857931 0.421745
148 1 0.502734 0.79954 0.318184
149 3 0.48128 0.819179 0.219388
150 4 0.453495 0.804039 0.34029
151 1 0.524256 0.753466 0.165247
152 3 0.444948 0.732709 0.182412
153 4 0.549204 0.711891 0.160482
154 1 0.413633 0.75722 0.0724088
155 3 0.357612 0.702521 0.0778802
156 4 0.406886 0.779931 0.0134581
157 1 0.420519 0.639414 0.0521555
158 3 0.365606 0.603206 0.113489
159 4 0.465052 0.615741 0.0347262
160 1 0.407163 0.626414 0.220006
161 3 0.329585 0.626972 0.259189
162 4 0.442976 0.641089 0.264616
163 1 0.313702 0.70823 0.232052
164 3 0.232595 0.690297 0.220756
165 4 0.320208 0.753249 0.216035
166 1 0.246228 0.655733 0.10665
167 3 0.188893 0.604075 0.129153
168 4 0.266851 0.646239 0.046331
169 1 0.248962 0.554898 0.191634
170 3 0.181522 0.539075 0.24754
171 4 0.291557 0.534111 0.218815
172 1 0.187128 0.610497 0.316463
173 3 0.109031 0.588065 0.30605
174 4 0.199516 0.653344 0.340334
175 1 0.0876816 0.645402 0.218727
176 3 0.0295501 0.594829 0.195429
177 4 0.0901384 0.679872 0.171998
178 1 0.0893426 0.541743 0.138596
179 3 0.0756055 0.470321 0.161232
180 4 0.121695 0.532777 0.086617
181 1 0.0942906 0.477953 0.279531
182 3 0.0216955 0.481242 0.329436
183 4 0.142215 0.464519 0.302255
184 1 0.0548097 0.530326 0.422451
185 3 0.00138408 0.497593 0.489476
186 4 0.0150865 0.558745 0.403168
187 1 0.0461592 0.419748 0.482107
188 3 0.128651 0.411712 0.488329
189 4 0.0182007 0.391576 0.44063
ITEM: TIMESTEP
1000
ITEM: NUMBER OF ATOMS
189
ITEM: BOX BOUNDS ss ss ss
-10.23 18.67
0.447165 32.678
-0.337 22.326
ITEM: ATOMS id type xs ys zs
1 1 0.666674 0.584415 -0.0056712
2 3 0.672399 0.536559 0.0733429
3 4 0.617432 0.604531 -0.00621138
4 1 0.709113 0.5832 0.148915
5 3 0.686469 0.646339 0.196843
6 4 0.762605 0.574968 0.154064
7 1 0.669825 0.622571 0.297112
8 3 0.736999 0.60162 0.35446
9 4 0.630342 0.603148 0.33041
10 1 0.760186 0.66873 0.396859
11 3 0.716874 0.709859 0.466364
12 4 0.795695 0.69794 0.367598
13 1 0.742224 0.675079 0.559787
14 3 0.80625 0.638435 0.605057
15 4 0.695672 0.654362 0.571822
16 1 0.804305 0.67183 0.705501
17 3 0.738277 0.66046 0.766024
18 4 0.825435 0.714773 0.733366
19 1 0.764022 0.596326 0.819021
20 3 0.825587 0.557464 0.864207
21 4 0.74051 0.559029 0.78679
22 1 0.811949 0.578266 0.972178
23 3 0.892782 0.574078 0.993461
24 4 0.805102 0.53349 0.986269
25 1 0.924539 0.635482 0.933828
26 3 0.987908 0.608793 0.878223
27 5 0.927646 0.596223 0.893412
28 1 0.947249 0.579377 0.790418
29 3 0.888545 0.605842 0.722572
30 4 0.941637 0.531476 0.794196
31 1 0.935185 0.61353 0.63387
32 3 0.928644 0.545992 0.591781
33 4 0.974099 0.636087 0.599314
34 1 0.854617 0.550757 0.537187
35 3 0.832225 0.595885 0.461807
36 4 0.811603 0.533998 0.56818
37 1 0.828228 0.551091 0.370937
38 3 0.826168 0.483189 0.335151
39 4 0.870156 0.565142 0.34073
40 1 0.736168 0.475004 0.32462
41 3 0.699829 0.507666 0.242492
42 4 0.699625 0.465284 0.370044
43 1 0.693881 0.444824 0.172068
44 3 0.619892 0.423697 0.210217
45 4 0.710831 0.408657 0.136268
46 1 0.566399 0.473587 0.160736
47 3 0.499378 0.427221 0.145597
48 4 0.547565 0.510784 0.125942
49 1 0.54418 0.367014 0.0984522
50 3 0.51337 0.311563 0.160346
51 4 0.573402 0.346373 0.0528951
52 1 0.563165 0.327268 0.251184
53 3 0.518329 0.324918 0.341456
54 4 0.614536 0.330165 0.278056
55 1 0.479592 0.394575 0.332146
56 3 0.40794 0.35949 0.304603
57 4 0.466222 0.438668 0.31533
58 1 0.388028 0.328388 0.403973
59 3 0.306251 0.33938 0.408684
60 4 0.403354 0.29668 0.45058
61 1 0.300194 0.40189 0.469396
62 3 0.348696 0.456889 0.507712
63 4 0.281185 0.379947 0.526966
64 1 0.295566 0.515585 0.481982
65 3 0.21351 0.530712 0.485917
66 4 0.315657 0.539283 0.430433
67 1 0.219295 0.585836 0.57225
68 3 0.269455 0.64374 0.58935
69 4 0.198009 0.562739 0.624852
70 1 0.210057 0.700863 0.615141
71 3 0.175809 0.692416 0.708016
72 4 0.176015 0.726085 0.577611
73 1 0.220981 0.746098 0.767019
74 3 0.263571 0.812457 0.783071
75 4 0.255287 0.721904 0.807773
76 1 0.203544 0.861095 0.747856
77 3 0.228696 0.870423 0.648793
78 5 0.155082 0.874469 0.728932
79 1 0.307572 0.898978 0.661324
80 3 0.371724 0.864879 0.618459
81 4 0.333772 0.940099 0.676362
82 1 0.37424 0.7995 0.678779
83 3 0.324503 0.742798 0.650418
84 4 0.387645 0.7882 0.743475
85 1 0.37646 0.711526 0.572067
86 3 0.433997 0.665105 0.609619
87 4 0.399646 0.719233 0.512164
88 1 0.389053 0.610358 0.656389
89 3 0.358023 0.563251 0.580192
90 4 0.356192 0.608046 0.711448
91 1 0.419118 0.50865 0.588063
92 3 0.463898 0.463197 0.645426
93 4 0.444343 0.522369 0.530072
94 1 0.454665 0.395637 0.605555
95 3 0.479044 0.394649 0.502224
96 4 0.422704 0.363801 0.623507
97 1 0.541922 0.341569 0.501957
98 3 0.563187 0.279644 0.557846
99 4 0.57726 0.374606 0.488019
100 1 0.591078 0.236923 0.473068
101 3 0.67243 0.24855 0.457251
102 4 0.581517 0.209859 0.416372
103 1 0.711646 0.213949 0.541542
104 3 0.707616 0.138824 0.529535
105 4 0.719496 0.223502 0.604971
106 1 0.787313 0.121028 0.507333
107 3 0.801245 0.102823 0.610435
108 5 0.782703 0.11227 0.570896
109 1 0.770436 0.0311459 0.61176
110 3 0.708915 -0.0040833 0.660614
111 5 0.782677 0.0440441 0.672895
112 1 0.640956 0.0320177 0.605775
113 3 0.59955 0.054442 0.694856
114 5 0.665862 -0.00900221 0.611906
115 1 0.619098 0.125568 0.696639
116 3 0.60612 0.176165 0.620894
117 4 0.661648 0.136032 0.734429
118 1 0.55904 0.225394 0.684163
119 3 0.60102 0.262115 0.75377
120 4 0.504493 0.228998 0.690111
121 1 0.605941 0.333241 0.712496
122 3 0.532606 0.368259 0.70859
123 5 0.632396 0.294916 0.731074
124 1 0.550662 0.435936 0.749095
125 3 0.615048 0.484926 0.741261
126 4 0.532094 0.442556 0.812286
127 1 0.576686 0.543603 0.689825
128 3 0.503489 0.582321 0.701874
129 5 0.607718 0.577552 0.714146
130 1 0.532126 0.652693 0.675961
131 3 0.592906 0.701542 0.665741
132 4 0.516538 0.661056 0.73843
133 1 0.558419 0.749879 0.592282
134 3 0.489334 0.786748 0.593806
135 4 0.577486 0.743037 0.529663
136 1 0.514704 0.860404 0.577798
137 3 0.510732 0.858993 0.474024
138 4 0.547019 0.898595 0.585458
139 1 0.425335 0.878923 0.461609
140 3 0.438686 0.917546 0.372044
141 4 0.374526 0.893948 0.476308
142 1 0.501931 0.963902 0.40538
143 3 0.558193 0.941849 0.329039
144 4 0.52042 0.999375 0.442388
145 1 0.590557 0.881471 0.378737
146 3 0.590373 0.813227 0.330652
147 4 0.62205 0.867403 0.431681
148 1 0.505957 0.798275 0.326444
149 3 0.491196 0.815293 0.224016
150 4 0.456675 0.798151 0.351782
151 1 0.527275 0.753163 0.175021
152 3 0.45003 0.725487 0.166206
153 4 0.553544 0.713896 0.166503
154 1 0.421189 0.754188 0.0762629
155 3 0.369026 0.697274 0.073412
156 4 0.4186 0.778739 0.0190517
157 1 0.424549 0.638404 0.0583965
158 3 0.382472 0.595975 0.124299
159 4 0.467199 0.612375 0.038999
160 1 0.407141 0.625538 0.222316
161 3 0.328103 0.635305 0.259661
162 4 0.444398 0.641663 0.2669
163 1 0.31367 0.709417 0.235698
164 3 0.23767 0.68925 0.210197
165 4 0.326418 0.753543 0.217802
166 1 0.250078 0.660508 0.108411
167 3 0.196768 0.605742 0.129991
168 4 0.272465 0.648554 0.0505196
169 1 0.246838 0.560376 0.198398
170 3 0.182466 0.548071 0.264374
171 4 0.29172 0.538966 0.226742
172 1 0.180709 0.619558 0.314946
173 3 0.0968743 0.620811 0.308544
174 4 0.202641 0.65907 0.343268
175 1 0.0880503 0.651074 0.207961
176 3 0.0309651 0.600937 0.172167
177 4 0.0929184 0.689295 0.171594
178 1 0.0901432 0.548664 0.131175
179 3 0.0737731 0.480354 0.166058
180 4 0.123435 0.538716 0.0818624
181 1 0.0849484 0.489095 0.27313
182 3 0.0136977 0.510921 0.321532
183 4 0.131626 0.47437 0.296237
184 1 0.0492025 0.536712 0.416931
185 3 0.00890878 0.503155 0.492769
186 4 0.0112916 0.568144 0.396406
187 1 0.0323342 0.428622 0.476115
188 3 0.0561682 0.371462 0.408283
189 4 0.000402745 0.406042 0.430987
ITEM: TIMESTEP
2000
ITEM: NUMBER OF ATOMS
189
ITEM: BOX BOUNDS ss ss ss
-10.23 18.67
0.447165 32.678
-0.337 22.326
ITEM: ATOMS id type xs ys zs
1 1 0.682913 0.608496 -0.00239057
2 3 0.692034 0.552299 0.0645572
3 4 0.632329 0.624931 -0.005047
4 1 0.717015 0.58921 0.155114
5 3 0.705563 0.65285 0.206181
6 4 0.768786 0.579647 0.16068
7 1 0.677649 0.627933 0.302606
8 3 0.746203 0.606126 0.357826
9 4 0.637414 0.60652 0.334579
10 1 0.766663 0.672776 0.407267
11 3 0.722252 0.716602 0.473861
12 4 0.802238 0.700026 0.38018
13 1 0.743989 0.6822 0.571248
14 3 0.795168 0.636326 0.618037
15 4 0.697471 0.65916 0.579426
16 1 0.804811 0.670589 0.717843
17 3 0.737292 0.653413 0.7749
18 4 0.825522 0.707342 0.74879
19 1 0.764711 0.590565 0.824537
20 3 0.830113 0.561183 0.875412
21 4 0.74272 0.5505 0.794718
22 1 0.807932 0.575459 0.978535
23 3 0.889334 0.570598 1.01023
24 4 0.802801 0.528037 0.990632
25 1 0.920502 0.628573 0.945114
26 3 0.986112 0.59615 0.89712
27 5 0.937788 0.625563 1.00853
28 1 0.9475 0.578004 0.801773
29 3 0.888545 0.59445 0.73063
30 4 0.940888 0.529627 0.805993
31 1 0.933894 0.615167 0.644646
32 3 0.93327 0.546412 0.600466
33 4 0.974326 0.635347 0.608294
34 1 0.857351 0.54998 0.543978
35 3 0.836749 0.598981 0.465561
36 4 0.814899 0.535114 0.57251
37 1 0.833508 0.548672 0.381433
38 3 0.83116 0.479804 0.346815
39 4 0.873553 0.563457 0.346862
40 1 0.74326 0.471603 0.32736
41 3 0.706986 0.509253 0.243947
42 4 0.707459 0.464318 0.37704
43 1 0.701565 0.450137 0.172806
44 3 0.628135 0.425464 0.211682
45 4 0.717541 0.41076 0.140156
46 1 0.575225 0.474923 0.162298
47 3 0.513665 0.426552 0.146757
48 4 0.556968 0.512914 0.125707
49 1 0.553275 0.368266 0.0992944
50 3 0.531692 0.308686 0.157437
51 4 0.582773 0.348923 0.0510642
52 1 0.571023 0.327216 0.251282
53 3 0.522119 0.327181 0.335712
54 4 0.622233 0.326995 0.275802
55 1 0.482307 0.395298 0.3289
56 3 0.408762 0.364121 0.302711
57 4 0.470097 0.440305 0.309374
58 1 0.392036 0.328533 0.395095
59 3 0.309832 0.340714 0.395838
60 4 0.406956 0.297809 0.442601
61 1 0.30403 0.400201 0.461174
62 3 0.353493 0.457667 0.494528
63 4 0.286713 0.380689 0.515949
64 1 0.296324 0.515801 0.472753
65 3 0.213355 0.530603 0.476741
66 4 0.320447 0.538445 0.422797
67 1 0.216739 0.583903 0.561374
68 3 0.267811 0.641332 0.579506
69 4 0.196341 0.560559 0.615259
70 1 0.207926 0.696796 0.603981
71 3 0.165911 0.69293 0.695436
72 4 0.173145 0.722815 0.567006
73 1 0.213832 0.743608 0.75659
74 3 0.254559 0.808442 0.766686
75 4 0.248337 0.723299 0.797316
76 1 0.1909 0.855415 0.740776
77 3 0.21619 0.866468 0.641262
78 5 0.166179 0.898506 0.745852
79 1 0.293837 0.897918 0.657622
80 3 0.348059 0.856212 0.599589
81 4 0.316062 0.938581 0.669622
82 1 0.364672 0.801227 0.68076
83 3 0.31056 0.751989 0.631932
84 4 0.370609 0.784122 0.741611
85 1 0.375069 0.711441 0.578732
86 3 0.43165 0.665722 0.605598
87 4 0.395881 0.720823 0.51496
88 1 0.385472 0.608251 0.654545
89 3 0.351136 0.561869 0.582304
90 4 0.360754 0.606934 0.716606
91 1 0.414255 0.509848 0.578064
92 3 0.473265 0.472054 0.632368
93 4 0.450079 0.526267 0.524319
94 1 0.460875 0.4006 0.595038
95 3 0.47831 0.387034 0.488731
96 4 0.427067 0.364078 0.611482
97 1 0.547342 0.342251 0.501303
98 3 0.58012 0.287832 0.562721
99 4 0.586203 0.373364 0.488294
100 1 0.594256 0.2347 0.478732
101 3 0.673999 0.251349 0.467746
102 4 0.586368 0.209563 0.427143
103 1 0.711196 0.211417 0.546367
104 3 0.700096 0.138319 0.555765
105 4 0.725679 0.228415 0.608589
106 1 0.77916 0.115584 0.511802
107 3 0.799188 0.0933376 0.609789
108 5 0.82317 0.14317 0.498411
109 1 0.758432 0.0235981 0.612476
110 3 0.697296 -0.00724417 0.658489
111 5 0.732838 0.0548384 0.574369
112 1 0.631239 0.035231 0.624718
113 3 0.578665 0.0664573 0.692415
114 5 0.581486 0.019163 0.62183
115 1 0.622526 0.13245 0.709278
116 3 0.614756 0.18543 0.635019
117 4 0.66337 0.143756 0.750124
118 1 0.55622 0.230855 0.683604
119 3 0.593562 0.264265 0.763264
120 4 0.505872 0.225612 0.695733
121 1 0.606696 0.337076 0.71552
122 3 0.530967 0.370323 0.70775
123 5 0.644944 0.340891 0.671479
124 1 0.553519 0.440614 0.749118
125 3 0.617165 0.486939 0.73594
126 4 0.535276 0.446763 0.812456
127 1 0.576192 0.548431 0.687429
128 3 0.50344 0.582117 0.703294
129 5 0.556368 0.513377 0.726868
130 1 0.529856 0.656207 0.674033
131 3 0.595247 0.693724 0.641138
132 4 0.510843 0.669161 0.734709
133 1 0.553814 0.75044 0.585891
134 3 0.488707 0.792335 0.60934
135 4 0.567063 0.742728 0.521657
136 1 0.517831 0.859889 0.565254
137 3 0.500289 0.849201 0.463427
138 4 0.547933 0.898185 0.566079
139 1 0.424709 0.876788 0.453586
140 3 0.433089 0.912266 0.361521
141 4 0.376255 0.89479 0.46978
142 1 0.500557 0.959132 0.386322
143 3 0.558368 0.940547 0.313544
144 4 0.518526 0.991193 0.42514
145 1 0.591931 0.877743 0.360329
146 3 0.595062 0.813538 0.30258
147 4 0.618292 0.858098 0.415045
148 1 0.511184 0.795099 0.312714
149 3 0.497715 0.809714 0.209176
150 4 0.45933 0.796964 0.335256
151 1 0.524809 0.743047 0.166584
152 3 0.445108 0.72005 0.168683
153 4 0.549403 0.704539 0.154464
154 1 0.417963 0.747709 0.0670765
155 3 0.365713 0.690781 0.0453653
156 4 0.417579 0.775096 0.0105876
157 1 0.419825 0.630843 0.0494034
158 3 0.377086 0.591517 0.120924
159 4 0.464063 0.610244 0.0320395
160 1 0.407146 0.624561 0.217333
161 3 0.33315 0.636805 0.266094
162 4 0.4467 0.638955 0.258301
163 1 0.313659 0.705244 0.226621
164 3 0.235123 0.688979 0.200963
165 4 0.322623 0.752018 0.210845
166 1 0.247733 0.649939 0.10979
167 3 0.194602 0.593701 0.129098
168 4 0.264878 0.64379 0.0454219
169 1 0.242774 0.552772 0.198297
170 3 0.178745 0.546322 0.269061
171 4 0.287198 0.531925 0.224526
172 1 0.186003 0.614683 0.314716
173 3 0.0995825 0.614637 0.315932
174 4 0.20365 0.654183 0.342044
175 1 0.0866856 0.646539 0.218506
176 3 0.03363 0.597739 0.175572
177 4 0.0915811 0.680231 0.16772
178 1 0.0850271 0.540619 0.147429
179 3 0.0719981 0.471666 0.180064
180 4 0.117329 0.533355 0.0937067
181 1 0.0889863 0.48106 0.289789
182 3 0.0230587 0.49079 0.355259
183 4 0.139076 0.470099 0.300172
184 1 0.0645273 0.532006 0.433489
185 3 0.0312358 0.500094 0.522628
186 4 0.0221379 0.559417 0.419977
187 1 0.0508472 0.424815 0.497472
188 3 0.0429396 0.391217 0.591771
189 4 0.0146979 0.401631 0.461998
ITEM: TIMESTEP
3000
ITEM: NUMBER OF ATOMS
189
ITEM: BOX BOUNDS ss ss ss
-10.23 18.67
0.447165 32.678
-0.337 22.326
ITEM: ATOMS id type xs ys zs
1 1 0.689772 0.592109 0.0144964
2 3 0.684835 0.543256 0.0918288
3 4 0.650705 0.625226 0.00861204
4 1 0.731905 0.576074 0.171276
5 3 0.722145 0.644278 0.211781
6 4 0.785147 0.57118 0.182951
7 1 0.690399 0.622572 0.312716
8 3 0.751338 0.598426 0.373488
9 4 0.646737 0.601325 0.341067
10 1 0.774563 0.665747 0.421426
11 3 0.730714 0.710037 0.486027
12 4 0.813528 0.693267 0.392878
13 1 0.753136 0.67594 0.582204
14 3 0.806225 0.634507 0.632916
15 4 0.704195 0.657483 0.592443
16 1 0.805768 0.664546 0.732865
17 3 0.740319 0.656725 0.797433
18 4 0.830313 0.701411 0.764519
19 1 0.758666 0.588109 0.84146
20 3 0.810401 0.545118 0.89743
21 4 0.73223 0.552585 0.809845
22 1 0.801026 0.576496 1.00017
23 3 0.880929 0.565814 1.02446
24 4 0.792383 0.529563 1.01114
25 1 0.919789 0.6236 0.965704
26 3 0.981301 0.591792 0.913707
27 5 0.88941 0.663615 0.954472
28 1 0.939101 0.562513 0.829
29 3 0.884194 0.589001 0.757633
30 4 0.926228 0.5158 0.83584
31 1 0.932906 0.599458 0.671194
32 3 0.919909 0.529886 0.635121
33 4 0.974473 0.615995 0.641325
34 1 0.857189 0.541272 0.565569
35 3 0.838384 0.586621 0.487875
36 4 0.810757 0.531446 0.596108
37 1 0.84042 0.538839 0.402009
38 3 0.828985 0.467536 0.372983
39 4 0.87994 0.55135 0.365003
40 1 0.746468 0.466934 0.346754
41 3 0.712532 0.5015 0.26428
42 4 0.704202 0.461467 0.391304
43 1 0.712617 0.442954 0.192167
44 3 0.639094 0.423426 0.232271
45 4 0.729356 0.404283 0.15865
46 1 0.588189 0.470608 0.174806
47 3 0.527336 0.418009 0.176312
48 4 0.567119 0.504459 0.137309
49 1 0.564977 0.367539 0.105294
50 3 0.535124 0.311844 0.164013
51 4 0.596536 0.345468 0.0602535
52 1 0.577096 0.326356 0.257324
53 3 0.531551 0.330048 0.346988
54 4 0.623994 0.32451 0.29144
55 1 0.486971 0.395786 0.333663
56 3 0.426579 0.353231 0.293038
57 4 0.473717 0.437879 0.313364
58 1 0.390313 0.327943 0.38814
59 3 0.309161 0.338473 0.394006
60 4 0.407259 0.296891 0.433376
61 1 0.306831 0.401442 0.463491
62 3 0.351694 0.459531 0.495423
63 4 0.283104 0.381026 0.513117
64 1 0.300292 0.517254 0.466398
65 3 0.226642 0.548113 0.457382
66 4 0.320274 0.542471 0.415978
67 1 0.216071 0.587267 0.551549
68 3 0.266016 0.643016 0.588856
69 4 0.193437 0.561528 0.601819
70 1 0.204096 0.700127 0.596587
71 3 0.161239 0.709556 0.685508
72 4 0.174038 0.72735 0.559118
73 1 0.214744 0.746783 0.749594
74 3 0.257758 0.811481 0.747012
75 4 0.247715 0.724824 0.791903
76 1 0.191358 0.860413 0.727089
77 3 0.222109 0.868364 0.629266
78 5 0.171444 0.903655 0.736779
79 1 0.297722 0.900416 0.651129
80 3 0.360054 0.862507 0.601622
81 4 0.323873 0.939555 0.664888
82 1 0.364301 0.799864 0.673403
83 3 0.310179 0.755802 0.615456
84 4 0.368904 0.780853 0.737176
85 1 0.368672 0.712349 0.562452
86 3 0.429644 0.66535 0.587057
87 4 0.38522 0.721776 0.500653
88 1 0.382853 0.617379 0.65115
89 3 0.36009 0.564793 0.576871
90 4 0.353392 0.606498 0.703214
91 1 0.423585 0.515323 0.580991
92 3 0.480505 0.477511 0.632173
93 4 0.445891 0.526842 0.51962
94 1 0.467575 0.405877 0.59065
95 3 0.480354 0.394164 0.489354
96 4 0.433783 0.368693 0.610763
97 1 0.551106 0.349461 0.491905
98 3 0.578979 0.293065 0.543866
99 4 0.588648 0.382587 0.473698
100 1 0.589553 0.239243 0.462274
101 3 0.668965 0.256365 0.435085
102 4 0.583191 0.212993 0.410445
103 1 0.713467 0.220154 0.514155
104 3 0.712176 0.150105 0.473323
105 4 0.726952 0.229827 0.582237
106 1 0.790173 0.124068 0.515447
107 3 0.788195 0.109366 0.620878
108 5 0.742717 0.102331 0.508373
109 1 0.769852 0.0347665 0.619523
110 3 0.700936 0.0286933 0.673836
111 5 0.750451 -0.00947467 0.627498
112 1 0.641727 0.0365664 0.594355
113 3 0.58715 0.0678872 0.66614
114 5 0.676628 0.0737351 0.592583
115 1 0.631516 0.134446 0.684639
116 3 0.602266 0.180994 0.607347
117 4 0.678254 0.145913 0.717176
118 1 0.568393 0.234063 0.671328
119 3 0.588054 0.275135 0.75599
120 4 0.514822 0.234172 0.680503
121 1 0.614154 0.338561 0.704987
122 3 0.541714 0.373099 0.700671
123 5 0.579055 0.367393 0.673289
124 1 0.56765 0.445039 0.731133
125 3 0.627347 0.493195 0.713769
126 4 0.551146 0.448041 0.796589
127 1 0.587184 0.553138 0.666652
128 3 0.513524 0.585981 0.676678
129 5 0.562709 0.528013 0.613117
130 1 0.541413 0.660529 0.659746
131 3 0.601516 0.701058 0.620553
132 4 0.531037 0.67189 0.721191
133 1 0.56241 0.758047 0.571515
134 3 0.496701 0.796561 0.596817
135 4 0.572464 0.748233 0.506455
136 1 0.517966 0.866871 0.561912
137 3 0.494252 0.852345 0.463439
138 4 0.55055 0.904644 0.559196
139 1 0.417374 0.881347 0.451956
140 3 0.433684 0.912538 0.357729
141 4 0.371094 0.896286 0.474038
142 1 0.493647 0.962901 0.386019
143 3 0.544253 0.939861 0.309912
144 4 0.514156 0.99956 0.417377
145 1 0.583754 0.878882 0.348506
146 3 0.579423 0.815929 0.286065
147 4 0.609189 0.859452 0.399478
148 1 0.496837 0.798647 0.305371
149 3 0.481776 0.814612 0.203305
150 4 0.447941 0.800937 0.328416
151 1 0.512827 0.75206 0.152107
152 3 0.437649 0.722216 0.151761
153 4 0.538838 0.710931 0.144961
154 1 0.39665 0.755223 0.0698102
155 3 0.347884 0.695406 0.0528182
156 4 0.388491 0.779783 0.0123473
157 1 0.40676 0.641403 0.0496608
158 3 0.369138 0.598417 0.118613
159 4 0.4488 0.61466 0.0287709
160 1 0.398161 0.627394 0.214718
161 3 0.327309 0.635438 0.271183
162 4 0.438891 0.640153 0.255223
163 1 0.304769 0.709777 0.23419
164 3 0.223584 0.700137 0.204031
165 4 0.311309 0.754643 0.224727
166 1 0.235924 0.651988 0.116882
167 3 0.186216 0.590783 0.137953
168 4 0.248534 0.646421 0.0559099
169 1 0.242425 0.554871 0.207094
170 3 0.195783 0.538609 0.292596
171 4 0.285589 0.533372 0.224283
172 1 0.184032 0.608219 0.334407
173 3 0.0987745 0.606928 0.337748
174 4 0.207608 0.647169 0.361539
175 1 0.0803757 0.639463 0.242464
176 3 0.0245569 0.587095 0.214456
177 4 0.0800008 0.67572 0.200954
178 1 0.0782925 0.53686 0.163133
179 3 0.0674977 0.465271 0.194533
180 4 0.108154 0.531187 0.108392
181 1 0.0925767 0.473958 0.301446
182 3 0.0267505 0.48206 0.362749
183 4 0.139704 0.456744 0.314957
184 1 0.0601526 0.523716 0.446241
185 3 0.0151252 0.48317 0.51729
186 4 0.0239877 0.555015 0.434347
187 1 0.0485659 0.412312 0.496357
188 3 0.125271 0.429653 0.463121
189 4 0.0230302 0.38234 0.454414
ITEM: TIMESTEP
4000
ITEM: NUMBER OF ATOMS
189
ITEM: BOX BOUNDS ss ss ss
-10.23 18.67
0.447165 32.678
-0.337 22.326
ITEM: ATOMS id type xs ys zs
1 1 0.715713 0.575757 0.0202548
2 3 0.715551 0.527533 0.0981717
3 4 0.670706 0.600148 0.0131679
4 1 0.750828 0.572223 0.178158
5 3 0.720205 0.636689 0.216722
6 4 0.802113 0.567679 0.193748
7 1 0.699494 0.612802 0.32208
8 3 0.751022 0.589486 0.397155
9 4 0.653313 0.595431 0.347371
10 1 0.77462 0.657458 0.438322
11 3 0.72227 0.697266 0.501723
12 4 0.808868 0.691643 0.41693
13 1 0.74422 0.665332 0.598692
14 3 0.797194 0.620818 0.651338
15 4 0.696218 0.650147 0.601688
16 1 0.798812 0.657234 0.748748
17 3 0.7306 0.639878 0.80361
18 4 0.815497 0.695079 0.780725
19 1 0.755374 0.572417 0.850544
20 3 0.810402 0.53641 0.90549
21 4 0.731096 0.534078 0.820843
22 1 0.790292 0.559603 1.00992
23 3 0.86479 0.564092 1.05172
24 4 0.788836 0.511932 1.01915
25 1 0.905191 0.614746 0.988403
26 3 0.971723 0.594612 0.932309
27 5 0.925571 0.576926 1.01717
28 1 0.934843 0.558168 0.846995
29 3 0.880642 0.587445 0.773275
30 4 0.925904 0.511575 0.848055
31 1 0.936444 0.598183 0.690457
32 3 0.927525 0.530823 0.653013
33 4 0.976122 0.618282 0.661991
34 1 0.860198 0.534452 0.584975
35 3 0.831968 0.578571 0.508799
36 4 0.812265 0.528518 0.611043
37 1 0.848391 0.536505 0.416749
38 3 0.843793 0.47042 0.369457
39 4 0.89403 0.549072 0.384393
40 1 0.75966 0.458354 0.358608
41 3 0.724422 0.495322 0.278799
42 4 0.718381 0.451445 0.398813
43 1 0.731845 0.441096 0.198251
44 3 0.656397 0.421168 0.232159
45 4 0.744515 0.404087 0.160122
46 1 0.60758 0.468274 0.168227
47 3 0.548181 0.415427 0.162438
48 4 0.591869 0.50309 0.132098
49 1 0.583234 0.363862 0.0994613
50 3 0.552377 0.307371 0.162049
51 4 0.61862 0.341589 0.0617877
52 1 0.589339 0.323629 0.257859
53 3 0.55203 0.332841 0.350152
54 4 0.6395 0.322692 0.282874
55 1 0.502689 0.395027 0.320481
56 3 0.440534 0.355784 0.285515
57 4 0.490558 0.440234 0.305171
58 1 0.404364 0.329676 0.376636
59 3 0.328826 0.355805 0.357402
60 4 0.411161 0.297962 0.421748
61 1 0.319241 0.399532 0.45083
62 3 0.364725 0.458728 0.476368
63 4 0.298622 0.382017 0.507086
64 1 0.310108 0.515679 0.447455
65 3 0.227913 0.53378 0.446085
66 4 0.327004 0.538762 0.396345
67 1 0.225877 0.583109 0.533583
68 3 0.272101 0.64282 0.549277
69 4 0.200686 0.562466 0.586048
70 1 0.210151 0.694641 0.574336
71 3 0.17413 0.690308 0.665873
72 4 0.173409 0.719441 0.535151
73 1 0.213046 0.744983 0.728693
74 3 0.258288 0.806263 0.729212
75 4 0.24717 0.721243 0.768345
76 1 0.195496 0.861455 0.714138
77 3 0.221853 0.86504 0.6094
78 5 0.152844 0.890204 0.719581
79 1 0.298179 0.898522 0.630441
80 3 0.362063 0.863253 0.581311
81 4 0.323344 0.937613 0.656183
82 1 0.365257 0.802254 0.649731
83 3 0.313962 0.758114 0.594719
84 4 0.372165 0.784056 0.715285
85 1 0.375585 0.71374 0.547182
86 3 0.433397 0.665266 0.577054
87 4 0.400662 0.719884 0.48764
88 1 0.387352 0.610605 0.632185
89 3 0.364446 0.564709 0.553704
90 4 0.351623 0.605012 0.680029
91 1 0.430162 0.514193 0.560324
92 3 0.480114 0.473518 0.619804
93 4 0.459652 0.528233 0.505634
94 1 0.471722 0.402133 0.576045
95 3 0.507945 0.409012 0.477094
96 4 0.439301 0.366498 0.592521
97 1 0.563466 0.349331 0.484906
98 3 0.596457 0.293304 0.543419
99 4 0.600005 0.381215 0.473274
100 1 0.607748 0.239684 0.462658
101 3 0.683856 0.270773 0.445947
102 4 0.601028 0.21396 0.411221
103 1 0.730666 0.225188 0.516964
104 3 0.738957 0.158618 0.473256
105 4 0.738922 0.238355 0.584435
106 1 0.803324 0.126707 0.5311
107 3 0.746981 0.100714 0.601101
108 5 0.844615 0.146923 0.560925
109 1 0.788325 0.0389545 0.637623
110 3 0.720583 -0.00312798 0.64936
111 5 0.773875 0.0777436 0.59739
112 1 0.663344 0.041022 0.595424
113 3 0.621737 0.0662367 0.684966
114 5 0.648545 -0.00346591 0.587936
115 1 0.646057 0.140296 0.686563
116 3 0.618099 0.182582 0.606117
117 4 0.692137 0.1517 0.718382
118 1 0.570672 0.232962 0.664999
119 3 0.58919 0.278551 0.74391
120 4 0.519019 0.232097 0.677587
121 1 0.617657 0.341921 0.690967
122 3 0.54305 0.375206 0.69382
123 5 0.56734 0.345822 0.705732
124 1 0.569386 0.447125 0.726373
125 3 0.632347 0.487474 0.69376
126 4 0.565592 0.457955 0.793181
127 1 0.58972 0.551976 0.661202
128 3 0.512517 0.58443 0.658591
129 5 0.590909 0.598188 0.653666
130 1 0.53837 0.658155 0.652957
131 3 0.596217 0.701991 0.614606
132 4 0.518776 0.672392 0.711953
133 1 0.552888 0.755577 0.561748
134 3 0.485496 0.793926 0.585861
135 4 0.55947 0.744472 0.496463
136 1 0.511239 0.86399 0.544754
137 3 0.498057 0.85768 0.435971
138 4 0.543882 0.89974 0.553457
139 1 0.414214 0.882615 0.439233
140 3 0.418693 0.923218 0.350733
141 4 0.367243 0.898475 0.456237
142 1 0.49313 0.963794 0.371272
143 3 0.542905 0.945059 0.291106
144 4 0.510673 0.997854 0.401513
145 1 0.577204 0.8808 0.32602
146 3 0.571763 0.806039 0.313798
147 4 0.620201 0.879668 0.371337
148 1 0.486677 0.798321 0.301641
149 3 0.470883 0.813932 0.20179
150 4 0.438021 0.806078 0.326476
151 1 0.493663 0.748364 0.151028
152 3 0.412651 0.720294 0.155042