ITEM: TIMESTEP
0
ITEM: NUMBER OF ATOMS
387
ITEM: BOX BOUNDS ss ss ss
-14.691 12.224
-1.228 37.759
16.1869 54.875
ITEM: ATOMS id type xs ys zs
1 1 0.575144 0.230795 0.727694
2 3 0.600074 0.268731 0.682797
3 4 0.519302 0.224998 0.720534
4 1 0.643693 0.217996 0.644361
5 3 0.59948 0.166209 0.628775
6 4 0.698012 0.208839 0.642578
7 1 0.567787 0.196501 0.566353
8 3 0.639458 0.195245 0.52983
9 4 0.534014 0.22269 0.550069
10 1 0.604198 0.14592 0.488164
11 3 0.538064 0.178265 0.463712
12 5 0.580791 0.116341 0.418318
13 1 0.580346 0.186934 0.399196
14 3 0.49608 0.203812 0.390278
15 4 0.611481 0.179752 0.368153
16 1 0.462456 0.138251 0.377096
17 3 0.38094 0.15046 0.401987
18 4 0.462493 0.10147 0.362259
19 1 0.411481 0.137071 0.468468
20 3 0.352517 0.182061 0.482218
21 4 0.443322 0.124683 0.497391
22 1 0.41776 0.234719 0.470742
23 3 0.348579 0.264729 0.446109
24 4 0.465837 0.25588 0.47175
25 1 0.366041 0.242081 0.378388
26 3 0.278655 0.253674 0.376656
27 4 0.38473 0.221894 0.347087
28 1 0.256065 0.188499 0.404779
29 3 0.185101 0.219201 0.424707
30 4 0.260227 0.151769 0.419073
31 1 0.232138 0.240824 0.486742
32 3 0.182723 0.291764 0.482141
33 4 0.26762 0.245056 0.516467
34 1 0.243322 0.325314 0.437295
35 3 0.166933 0.345679 0.413128
36 4 0.288872 0.337625 0.417703
37 1 0.152108 0.291713 0.370401
38 3 0.0678432 0.306461 0.381102
39 4 0.159242 0.259779 0.34856
40 1 0.0619357 0.267294 0.443344
41 3 0.00148616 0.30936 0.461515
42 4 0.0757942 0.243979 0.474077
43 1 0.0720416 0.35971 0.475291
44 3 0.0623444 0.415651 0.453036
45 4 0.116775 0.37374 0.495039
46 1 0.0263422 0.397543 0.389012
47 3 0.0537618 0.443532 0.35404
48 5 0.0436188 0.382613 0.322477
49 1 0.153074 0.434068 0.361691
50 3 0.185473 0.451715 0.307359
51 4 0.202118 0.428861 0.381774
52 1 0.154115 0.398748 0.269802
53 3 0.0792495 0.427142 0.251114
54 4 0.139996 0.362916 0.258119
55 1 0.131748 0.47444 0.208259
56 3 0.083485 0.526406 0.216788
57 4 0.0926992 0.460949 0.18254
58 1 0.110905 0.533485 0.28376
59 3 0.17767 0.571498 0.27019
60 4 0.128107 0.527073 0.320153
61 1 0.113431 0.623849 0.243954
62 3 0.183875 0.637315 0.206346
63 4 0.141185 0.648319 0.268613
64 1 0.169088 0.582322 0.163904
65 3 0.250269 0.563675 0.149093
66 5 0.139662 0.551073 0.0934426
67 1 0.272339 0.530946 0.206759
68 3 0.240312 0.481006 0.235761
69 4 0.300873 0.545823 0.237932
70 1 0.2778 0.434991 0.186159
71 3 0.342523 0.435299 0.228291
72 4 0.298161 0.420935 0.152117
73 1 0.312651 0.372534 0.257835
74 3 0.390972 0.376613 0.286293
75 4 0.292216 0.336266 0.259721
76 1 0.447631 0.361146 0.226662
77 3 0.512205 0.3909 0.257214
78 5 0.393721 0.318219 0.174732
79 1 0.471447 0.454459 0.250029
80 3 0.513468 0.46159 0.303482
81 4 0.439235 0.485393 0.24062
82 1 0.434442 0.441865 0.343752
83 3 0.497901 0.422808 0.383222
84 4 0.379751 0.434427 0.353342
85 1 0.51057 0.358094 0.353885
86 3 0.59465 0.364532 0.369161
87 4 0.499907 0.323672 0.334576
88 1 0.623556 0.401288 0.310564
89 3 0.677317 0.43081 0.351403
90 4 0.622107 0.415857 0.273757
91 1 0.609288 0.478518 0.37035
92 3 0.655842 0.473927 0.421683
93 4 0.565001 0.502219 0.373968
94 1 0.604496 0.421269 0.45115
95 3 0.679621 0.402544 0.477359
96 4 0.565447 0.395311 0.461773
97 1 0.721011 0.371431 0.420959
98 3 0.793238 0.391259 0.451615
99 4 0.731339 0.355349 0.385755
100 1 0.803158 0.449252 0.412869
101 3 0.834962 0.489137 0.453502
102 4 0.807542 0.467104 0.377975
103 1 0.745904 0.501988 0.487336
104 3 0.790006 0.496909 0.541487
105 4 0.691102 0.513812 0.493075
106 1 0.749842 0.434222 0.55635
107 3 0.777039 0.382153 0.581293
108 4 0.700502 0.431708 0.575813
109 1 0.789745 0.348449 0.517242
110 3 0.765633 0.302075 0.554773
111 4 0.842578 0.341011 0.531252
112 1 0.662567 0.3149 0.54265
113 3 0.632621 0.287916 0.595199
114 4 0.662493 0.27935 0.526547
115 1 0.680067 0.330546 0.638468
116 3 0.651235 0.387257 0.651831
117 4 0.73212 0.335702 0.650616
118 1 0.570054 0.366019 0.689621
119 3 0.565112 0.412009 0.73152
120 4 0.527401 0.345423 0.70606
121 1 0.655434 0.398415 0.76003
122 3 0.721419 0.436966 0.774815
123 4 0.673565 0.372432 0.786369
124 1 0.75144 0.449175 0.708489
125 3 0.697381 0.496832 0.721077
126 4 0.756307 0.448714 0.669744
127 1 0.77258 0.539564 0.742557
128 3 0.856771 0.542206 0.723688
129 4 0.77102 0.544002 0.783319
130 1 0.860004 0.607818 0.705181
131 3 0.821475 0.661733 0.71353
132 4 0.861416 0.611075 0.665944
133 1 0.889727 0.681201 0.766776
134 3 0.957719 0.700336 0.732424
135 4 0.917407 0.672814 0.800843
136 1 0.911313 0.760638 0.710842
137 3 0.936095 0.794316 0.759771
138 4 0.870221 0.774566 0.687346
139 1 0.977076 0.846308 0.715985
140 3 0.957533 0.879088 0.765148
141 4 0.998514 0.86357 0.683779
142 1 0.877578 0.910278 0.743074
143 3 0.801486 0.902455 0.773393
144 4 0.846071 0.936286 0.721465
145 1 0.833327 0.848719 0.812811
146 3 0.761471 0.81817 0.82408
147 5 0.861527 0.793593 0.768024
148 1 0.7329 0.802037 0.759565
149 3 0.796285 0.759099 0.755274
150 4 0.710236 0.814348 0.726273
151 1 0.73316 0.703645 0.751578
152 3 0.654579 0.699695 0.723585
153 4 0.728776 0.683587 0.785852
154 1 0.682408 0.647908 0.679721
155 3 0.709307 0.598122 0.709472
156 4 0.710199 0.643317 0.644775
157 1 0.606836 0.572755 0.713194
158 3 0.55222 0.553313 0.668606
159 4 0.56567 0.581938 0.739791
160 1 0.572915 0.484084 0.68029
161 3 0.621586 0.487932 0.627534
162 5 0.599034 0.433849 0.619116
163 1 0.564667 0.433324 0.598068
164 3 0.591715 0.452356 0.541281
165 4 0.522794 0.407623 0.583619
166 1 0.541148 0.513197 0.544511
167 3 0.559056 0.572345 0.541229
168 4 0.486383 0.518121 0.534224
169 1 0.622441 0.574166 0.598818
170 3 0.615568 0.632262 0.580983
171 4 0.67245 0.576192 0.578191
172 1 0.524243 0.642317 0.614791
173 3 0.560357 0.657553 0.668115
174 4 0.470035 0.63021 0.624717
175 1 0.577187 0.726499 0.650306
176 3 0.506855 0.753841 0.67375
177 4 0.59543 0.754944 0.626811
178 1 0.543935 0.761946 0.73899
179 3 0.510645 0.813938 0.756825
180 4 0.568048 0.754354 0.77285
181 1 0.555452 0.857491 0.715598
182 3 0.480847 0.889219 0.718131
183 4 0.592309 0.875702 0.692024
184 1 0.432584 0.855311 0.66398
185 3 0.348244 0.837972 0.676309
186 4 0.435408 0.857491 0.623942
187 1 0.366301 0.770513 0.676671
188 3 0.30797 0.740426 0.71141
189 4 0.382798 0.744222 0.64935
190 1 0.366338 0.731962 0.767035
191 3 0.426491 0.769308 0.789806
192 4 0.384804 0.694873 0.764734
193 1 0.392198 0.762177 0.857734
194 3 0.411035 0.711622 0.889268
195 4 0.349025 0.774079 0.880687
196 1 0.503585 0.727601 0.906897
197 3 0.549322 0.735117 0.959548
198 4 0.549954 0.713263 0.887769
199 1 0.513766 0.800549 0.973196
200 3 0.577633 0.834919 0.998966
201 5 0.502805 0.761164 0.912904
202 1 0.6483 0.825993 0.9512
203 3 0.707115 0.853644 0.915426
204 4 0.685603 0.798292 0.961823
205 1 0.646703 0.860312 0.857863
206 3 0.59647 0.909611 0.863498
207 4 0.617871 0.843102 0.827337
208 1 0.672116 0.957088 0.853495
209 3 0.608954 0.998974 0.861456
210 4 0.721308 0.968733 0.838736
211 1 0.567565 0.998076 0.800507
212 3 0.515698 0.978583 0.755119
213 5 0.610292 0.971418 0.724222
214 1 0.484525 0.921794 0.79252
215 3 0.405053 0.946726 0.809502
216 4 0.492179 0.890451 0.814749
217 1 0.358239 0.911483 0.754447
218 3 0.375293 0.852181 0.759384
219 4 0.353929 0.923205 0.717355
220 1 0.277763 0.829969 0.76507
221 3 0.191417 0.821351 0.748062
222 4 0.259149 0.822813 0.80167
223 1 0.207245 0.824993 0.679773
224 3 0.13721 0.788494 0.673983
225 4 0.229352 0.836202 0.645085
226 1 0.17938 0.728038 0.682047
227 3 0.127773 0.694462 0.720457
228 4 0.214379 0.698361 0.67344
229 1 0.133271 0.741811 0.774944
230 3 0.111982 0.691743 0.809011
231 4 0.077206 0.746659 0.771842
232 1 0.210217 0.670095 0.815163
233 3 0.288872 0.697566 0.82695
234 4 0.220249 0.638649 0.791357
235 1 0.317369 0.651525 0.878464
236 3 0.335166 0.61105 0.832972
237 4 0.30875 0.630159 0.909972
238 1 0.433624 0.629492 0.826381
239 3 0.451978 0.571498 0.814207
240 4 0.481925 0.649447 0.826639
241 1 0.44399 0.545977 0.879291
242 3 0.416608 0.492549 0.859828
243 4 0.440461 0.54195 0.918502
244 1 0.325581 0.51176 0.830853
245 3 0.330894 0.47326 0.781018
246 4 0.278061 0.531254 0.82116
247 1 0.407134 0.509811 0.750389
248 3 0.469144 0.470926 0.730693
249 4 0.430875 0.541616 0.735888
250 1 0.496155 0.447482 0.79265
251 3 0.497864 0.390053 0.816817
252 4 0.527698 0.462231 0.821754
253 1 0.406948 0.372688 0.802498
254 3 0.421772 0.353631 0.744211
255 4 0.353074 0.378767 0.811286
256 1 0.405907 0.285326 0.759177
257 3 0.366859 0.271193 0.704897
258 4 0.401598 0.251468 0.780062
259 1 0.28486 0.307077 0.71446
260 3 0.296823 0.36938 0.716735
261 4 0.235445 0.299792 0.732993
262 1 0.293442 0.367815 0.641415
263 3 0.263608 0.422192 0.623554
264 4 0.306149 0.345474 0.608536
265 1 0.167973 0.413728 0.648342
266 3 0.165781 0.472388 0.632058
267 4 0.123871 0.401159 0.670881
268 1 0.205016 0.498859 0.692076
269 3 0.236225 0.542771 0.654338
270 4 0.224745 0.501449 0.728857
271 1 0.314211 0.50581 0.62831
272 3 0.292662 0.538538 0.579225
273 4 0.357905 0.480519 0.626811
274 1 0.232584 0.490753 0.547975
275 3 0.191566 0.540411 0.526418
276 4 0.20483 0.457563 0.533966
277 1 0.131414 0.550748 0.580931
278 3 0.135947 0.609152 0.563639
279 4 0.0990897 0.54631 0.613318
280 1 0.223035 0.622541 0.596931
281 3 0.244362 0.655885 0.546838
282 4 0.26123 0.623079 0.625596
283 1 0.287683 0.603637 0.510367
284 3 0.260598 0.636315 0.46123
285 4 0.308861 0.569292 0.497882
286 1 0.161991 0.615846 0.462548
287 3 0.142746 0.672557 0.442051
288 4 0.11436 0.596301 0.469217
289 1 0.152554 0.702901 0.505818
290 3 0.191863 0.748557 0.474206
291 4 0.149842 0.707159 0.544511
292 1 0.286049 0.724857 0.478083
293 3 0.287349 0.755842 0.424242
294 4 0.331451 0.703722 0.488577
295 1 0.265242 0.70108 0.382576
296 3 0.22898 0.733116 0.33698
297 4 0.259075 0.665606 0.365206
298 1 0.146275 0.751943 0.378595
299 3 0.130968 0.812296 0.37508
300 4 0.0993498 0.744145 0.398989
301 1 0.2094 0.833714 0.411706
302 3 0.256214 0.872188 0.37477
303 4 0.213078 0.83633 0.451434
304 1 0.345495 0.83987 0.389916
305 3 0.359465 0.78557 0.36319
306 5 0.297306 0.812353 0.345736
307 1 0.373063 0.82212 0.296063
308 3 0.419989 0.772155 0.2804
309 4 0.422032 0.840973 0.287508
310 1 0.343712 0.726652 0.288076
311 3 0.3987 0.719265 0.337032
312 5 0.340814 0.658781 0.223509
313 1 0.447669 0.664991 0.310357
314 3 0.532231 0.667402 0.3269
315 4 0.452127 0.629466 0.294461
316 1 0.548393 0.733321 0.302163
317 3 0.604198 0.747172 0.347785
318 4 0.544418 0.766409 0.281356
319 1 0.532528 0.743632 0.399402
320 3 0.595207 0.723805 0.439415
321 4 0.48211 0.738939 0.41641
322 1 0.612595 0.662734 0.408708
323 3 0.661007 0.656142 0.3574
324 4 0.588371 0.627825 0.40496
325 1 0.747576 0.682689 0.381516
326 3 0.77964 0.649268 0.336722
327 4 0.794093 0.697027 0.400747
328 1 0.778228 0.58735 0.369083
329 3 0.764667 0.561623 0.315423
330 4 0.777002 0.557647 0.394336
331 1 0.668735 0.576141 0.307488
332 3 0.695151 0.586734 0.249072
333 4 0.611406 0.582451 0.313821
334 1 0.703994 0.657219 0.259101
335 3 0.764927 0.658784 0.214746
336 4 0.697158 0.692923 0.276703
337 1 0.839495 0.628055 0.252226
338 3 0.883262 0.587452 0.217435
339 4 0.876983 0.634083 0.280839
340 1 0.833699 0.531818 0.244394
341 3 0.802675 0.486188 0.210378
342 4 0.845291 0.511786 0.277453
343 1 0.704551 0.507759 0.210197
344 3 0.662753 0.509888 0.154314
345 4 0.664016 0.503501 0.236898
346 1 0.660041 0.581348 0.1554
347 3 0.731414 0.579142 0.116267
348 4 0.665763 0.618129 0.167187
349 1 0.674494 0.5607 0.0596084
350 3 0.70574 0.517506 0.0215088
351 5 0.657031 0.545175 0.00103391
352 1 0.707784 0.466438 0.0702835
353 3 0.618205 0.458384 0.0706712
354 4 0.740442 0.456126 0.10112
355 1 0.619915 0.3919 0.0520091
356 3 0.638343 0.354169 0.0989744
357 4 0.62976 0.36407 0.0255669
358 1 0.562549 0.378639 0.140615
359 3 0.52885 0.329238 0.170133
360 4 0.535278 0.408906 0.159277
361 1 0.489058 0.299331 0.112208
362 3 0.502025 0.246646 0.141882
363 4 0.47676 0.288917 0.0757373
364 1 0.606651 0.247493 0.131517
365 3 0.610106 0.20966 0.180265
366 4 0.660041 0.259984 0.125908
367 1 0.583801 0.260574 0.227205
368 3 0.542003 0.227614 0.268458
369 4 0.577262 0.295637 0.244394
370 1 0.46658 0.204632 0.222863
371 3 0.444288 0.148998 0.198152
372 4 0.416868 0.220766 0.210973
373 1 0.533754 0.13407 0.169952
374 3 0.537247 0.104445 0.22506
375 4 0.587405 0.134045 0.158114
376 1 0.498941 0.0447585 0.200504
377 3 0.448114 0.0192885 0.242972
378 5 0.503288 0.0131968 0.162385
379 1 0.402304 0.0767692 0.265149
380 3 0.345161 0.0876959 0.218598
381 4 0.393907 0.110627 0.283036
382 1 0.281776 0.0373971 0.242352
383 3 0.254133 0.0621746 0.294719
384 4 0.26632 0.00102598 0.25114
385 1 0.192941 0.110934 0.262694
386 3 0.143192 0.105702 0.21242
387 4 0.214639 0.147306 0.261221
