LAMMPS protain data file

         387  atoms
         514  bonds
           0  angles
           0  dihedrals
           0  impropers

           5  atom types
           5  bond types
           0  angle types
           0  dihedral types
           0  improper types

-200.0	200.0	xlo xhi
-200.0	200.0	ylo yhi
-200.0	200.0	zlo zhi

Masses

           1	27.0
           2	14.0
           3	28.0
           4	60.0
           5	60.0

Atoms

           1	1	1	1	0.0	0.23100001	-0.53500003	30.10499954
           2	1	1	3	0.0	-1.30299997	-2.20099998	30.90500069
           3	1	1	4	0.0	0.56099999	0.412	31.25600052
           4	1	2	1	0.0	0.63700002	-3.94700003	31.70299911
           5	1	2	3	0.0	2.78699994	-3.79399991	32.77099991
           6	1	2	4	0.0	0.62900001	-5.125	30.68000031
           7	1	3	1	0.0	1.91900003	-5.454	34.88800049
           8	1	3	3	0.0	2.43199992	-7.5170002	33.75699997
           9	1	3	4	0.0	0.96499997	-5.77199984	36.02799988
          10	1	4	1	0.0	4.96700001	-7.76499987	35.02799988
          11	1	4	3	0.0	5.52799988	-7.34800005	37.33399963
          12	1	4	4	0.0	6.17700005	-7.3210001	34.2159996
          13	1	5	1	0.0	6.3039999	-9.84500027	37.9090004
          14	1	5	3	0.0	8.51799965	-9.04899979	37.36600113
          15	1	5	4	0.0	6.33699989	-11.38300037	37.85400009
          16	1	6	1	0.0	9.19799995	-9.00899982	40.13000107
          17	1	6	3	0.0	8.11600018	-9.90699959	42.06100082
          18	1	6	4	0.0	9.46500015	-7.51499987	40.0719986
          19	1	7	1	0.0	10.38300037	-9.98400021	43.61899948
          20	1	7	3	0.0	12.20199966	-8.39099979	43.80099869
          21	1	7	4	0.0	10.93000031	-11.41300011	43.74700165
          22	1	8	1	0.0	11.65799999	-7.8210001	46.47100067
          23	1	8	3	0.0	13.21399975	-9.53499985	47.10200119
          24	1	8	4	0.0	11.01900005	-7.66300011	47.85599899
          25	1	9	1	0.0	15.36999989	-7.8119998	47.01100159
          26	1	9	3	0.0	15.77299976	-7.63000011	49.35400009
          27	1	9	4	0.0	16.46299934	-7.48500013	45.99499893
          28	1	10	1	0.0	15.47999954	-4.85500002	49.47499847
          29	1	10	3	0.0	15.00899982	-2.852	48.25299835
          30	1	10	4	0.0	16.94599915	-4.65100002	49.80899811
          31	1	11	1	0.0	13.74499989	-1.70200002	50.58300018
          32	1	11	3	0.0	15.97900009	-1.19000006	51.0890007
          33	1	11	4	0.0	13.07499981	-1.62100005	51.96699905
          34	1	12	1	0.0	15.92199993	1.39699996	50.10599899
          35	1	12	3	0.0	15.66100025	2.91100001	51.90999985
          36	1	12	4	0.0	16.58600044	1.74800003	48.75799942
          37	1	13	1	0.0	13.85200024	4.52600002	50.82300186
          38	1	13	3	0.0	11.85299969	3.8210001	49.62599945
          39	1	13	4	0.0	14.75300026	5.76200008	50.75400162
          40	1	14	1	0.0	10.49600029	6.24399996	50.09700012
          41	1	14	3	0.0	9.06900024	5.34299994	48.39199829
          42	1	14	5	0.0	11.92500019	6.32940977	47.53152644
          43	1	15	1	0.0	10.7159996	6.05700016	46.31200027
          44	1	15	3	0.0	11.65200043	5.38999987	44.19300079
          45	1	15	4	0.0	10.5340004	7.44999981	45.7159996
          46	1	16	1	0.0	13.50300026	3.55100012	45.4640007
          47	1	16	3	0.0	13.39299965	2.06500006	47.45199966
          48	1	16	4	0.0	14.92800045	4.0539999	45.37900162
          49	1	17	1	0.0	13.44099998	-0.207	45.9090004
          50	1	17	3	0.0	14.35099983	-0.958	43.76100159
          51	1	17	4	0.0	11.98700047	-0.71399999	45.98500061
          52	1	18	1	0.0	15.71800041	-3.0150001	44.87099838
          53	1	18	3	0.0	14.32400036	-4.86199999	45.55400085
          54	1	18	4	0.0	17.04999924	-3.3440001	45.56499863
          55	1	19	1	0.0	13.74499989	-5.65600014	42.99700165
          56	1	19	3	0.0	15.50699997	-6.10400009	41.38800049
          57	1	19	4	0.0	12.51599979	-5.14400005	42.23500061
          58	1	20	1	0.0	14.56299973	-8.72799969	40.8219986
          59	1	20	3	0.0	12.37300014	-9.08199978	39.90299988
          60	1	20	4	0.0	14.77299976	-10.14900017	41.35100174
          61	1	21	1	0.0	13.14500046	-8.1789999	37.32699966
          62	1	21	3	0.0	14.95699978	-8.72700024	35.8390007
          63	1	21	4	0.0	12.86999989	-6.69500017	36.98899841
          64	1	22	1	0.0	13.51299953	-10.76299953	34.5719986
          65	1	22	3	0.0	15.75800037	-11.60200024	34.35800171
          66	1	22	4	0.0	13.70800018	-10.15499973	33.21099854
          67	1	23	1	0.0	15.89099979	-12.47599983	37.00400162
          68	1	23	3	0.0	18.16399956	-12.38599968	37.61899948
          69	1	23	5	0.0	14.77799988	-12.78283224	35.10140097
          70	1	24	1	0.0	18.27000046	-9.47200012	37.29000092
          71	1	24	3	0.0	16.83099937	-7.98199987	38.4280014
          72	1	24	4	0.0	18.59499931	-8.65299988	36.00999832
          73	1	25	1	0.0	18.68099976	-7.22399998	40.33599854
          74	1	25	3	0.0	19.63199997	-5.61899996	38.86899948
          75	1	25	4	0.0	19.86000061	-7.38899994	41.30899811
          76	1	26	1	0.0	17.78300095	-3.62299991	39.56200027
          77	1	26	3	0.0	16.28899956	-3.148	41.39300156
          78	1	26	4	0.0	16.79100037	-3.77200007	38.41500092
          79	1	27	1	0.0	17.05999947	-0.509	41.59600067
          80	1	27	3	0.0	16.33799934	0.67799997	39.67300034
          81	1	27	4	0.0	18.10899925	0.50300002	42.0909996
          82	1	28	1	0.0	13.68099976	0.903	40.65599823
          83	1	28	3	0.0	13.4630003	2.32500005	42.61399841
          84	1	28	4	0.0	12.43000031	0.04	40.69499969
          85	1	29	1	0.0	12.73400021	4.57499981	40.94599915
          86	1	29	3	0.0	10.88799953	4.52899981	39.3769989
          87	1	29	4	0.0	13.64099979	5.65799999	40.3730011
          88	1	30	1	0.0	8.94099998	5.20499992	41.28900146
          89	1	30	3	0.0	9.15400028	7.48400021	40.63600159
          90	1	30	4	0.0	8.18599987	5.47900009	42.6269989
          91	1	31	1	0.0	7.53999996	7.10900021	38.38899994
          92	1	31	3	0.0	5.73199987	7.70699978	39.81800079
          93	1	31	4	0.0	6.77899981	6.46000004	37.19200134
          94	1	32	1	0.0	5.80600023	10.45600033	38.81900024
          95	1	32	3	0.0	4.6329999	11.68400002	40.54199982
          96	1	32	4	0.0	4.44799995	10.08899975	38.18700027
          97	1	33	1	0.0	6.48400021	10.90100002	42.54899979
          98	1	33	3	0.0	8.8739996	10.98200035	42.47700119
          99	1	33	4	0.0	5.829	9.84399986	43.42200089
         100	1	34	1	0.0	9.05300045	12.29800034	45.00500107
         101	1	34	3	0.0	8.0010004	12.94099998	47.02999878
         102	1	34	4	0.0	9.56999969	13.65400028	44.52399826
         103	1	35	1	0.0	9.60000038	11.37899971	48.60300064
         104	1	35	3	0.0	11.76399994	12.40600014	48.50099945
         105	1	35	4	0.0	9.70899963	9.92700005	49.11500168
         106	1	36	1	0.0	11.76799965	13.29399967	51.00500107
         107	1	36	3	0.0	12.59799957	11.0710001	51.34799957
         108	1	36	4	0.0	11.26099968	13.79800034	52.36500168
         109	1	37	1	0.0	15.28199959	11.91699982	51.42300034
         110	1	37	3	0.0	14.62199974	12.34799957	53.6780014
         111	1	37	4	0.0	16.60199928	12.63799953	51.11999893
         112	1	38	1	0.0	15.76500034	9.97500038	54.63499832
         113	1	38	3	0.0	15.64900017	11.08300018	56.7140007
         114	1	38	4	0.0	16.6079998	8.71899986	54.8370018
         115	1	39	1	0.0	17.7329998	12.96000004	56.0719986
         116	1	39	3	0.0	17.11599922	15.11600018	56.85100174
         117	1	39	4	0.0	19.03199959	13.51399994	55.41799927
         118	1	40	1	0.0	14.65200043	15.19799995	55.56700134
         119	1	40	3	0.0	13.14500046	13.70100021	56.81499863
         120	1	40	4	0.0	14.26099968	15.63000011	54.13499832
         121	1	41	1	0.0	11.35900021	15.76399994	57.31399918
         122	1	41	3	0.0	10.19699955	15.06499958	55.29499817
         123	1	41	4	0.0	10.75500011	17.14699936	57.54000092
         124	1	42	1	0.0	9.08600044	12.76399994	56.67300034
         125	1	42	3	0.0	9.1239996	10.80700016	55.3219986
         126	1	42	4	0.0	7.85099983	13.33300018	55.90599823
         127	1	43	1	0.0	11.97700024	10.86800003	54.99900055
         128	1	43	3	0.0	11.55000019	8.57299995	55.02399826
         129	1	43	5	0.0	11.11100006	10.03982141	50.54395627
         130	1	44	1	0.0	11.98499966	8.1960001	57.71099854
         131	1	44	3	0.0	10.48700047	6.329	57.39899826
         132	1	44	4	0.0	12.28800011	8.59399986	59.19200134
         133	1	45	1	0.0	8.14999962	7.91400003	57.625
         134	1	45	3	0.0	7.23000002	6.36499977	56.01599884
         135	1	45	4	0.0	7.23099995	9.0909996	57.86999893
         136	1	46	1	0.0	8.25300026	7.60500002	53.76499939
         137	1	46	3	0.0	8.34799957	5.36399984	52.97100067
         138	1	46	4	0.0	8.73400021	8.66800022	52.78300095
         139	1	47	1	0.0	10.93599987	4.9289999	54.01399994
         140	1	47	3	0.0	10.06400013	2.727	53.94599915
         141	1	47	4	0.0	12.33600044	5.07600021	54.63299942
         142	1	48	1	0.0	9.01099968	2.91799998	56.63899994
         143	1	48	3	0.0	7.43900013	1.28900003	55.81600189
         144	1	48	4	0.0	8.67599964	3.47199988	58.04399872
         145	1	49	1	0.0	5.79099989	3.24799991	54.57600021
         146	1	49	3	0.0	5.38800001	1.26600003	53.23099899
         147	1	49	4	0.0	5.14499998	4.5710001	54.13700104
         148	1	50	1	0.0	7.23000002	1.85399997	51.2840004
         149	1	50	3	0.0	7.50099993	-0.55800003	51.06700134
         150	1	50	4	0.0	8.24499989	2.579	50.38499832
         151	1	51	1	0.0	9.27400017	-0.699	53.23199844
         152	1	51	3	0.0	8.23400021	-2.85500002	53.23600006
         153	1	51	4	0.0	10.20499992	-0.361	54.40800095
         154	1	52	1	0.0	6.25299978	-2.11299992	55.0359993
         155	1	52	3	0.0	4.99800014	-3.74699998	53.83000183
         156	1	52	4	0.0	5.41900015	-1.35899997	56.05199814
         157	1	53	1	0.0	4.16599989	-2.10100007	51.86800003
         158	1	53	3	0.0	4.25199986	-4.1420002	50.55899811
         159	1	53	4	0.0	3.77399993	-0.81900001	51.12400055
         160	1	54	1	0.0	6.83400011	-3.9460001	49.81399918
         161	1	54	3	0.0	7.13800001	-6.26599979	49.83200073
         162	1	54	4	0.0	8.04100037	-3.3829999	49.01699829
         163	1	55	1	0.0	7.90100002	-6.37900019	52.57400131
         164	1	55	3	0.0	6.73199987	-8.44400024	52.94900131
         165	1	55	4	0.0	8.69799995	-5.99399996	53.84400177
         166	1	56	1	0.0	4.3119998	-7.34600019	53.45500183
         167	1	56	3	0.0	2.72099996	-8.78899956	52.35200119
         168	1	56	4	0.0	3.32500005	-6.50400019	54.25799942
         169	1	57	1	0.0	3.38100004	-7.92299986	49.80099869
         170	1	57	3	0.0	4.81400013	-9.80799961	49.56200027
         171	1	57	4	0.0	3.79099989	-7.04899979	48.66400146
         172	1	58	1	0.0	2.84899998	-11.43299961	48.52299881
         173	1	58	3	0.0	4.05299997	-12.18599987	46.64699936
         174	1	58	4	0.0	1.52100003	-12.22299957	48.52099991
         175	1	59	1	0.0	2.98399997	-10.25800037	44.93299866
         176	1	59	3	0.0	2.66199994	-7.86299992	44.94499969
         177	1	59	4	0.0	1.68099999	-10.58899975	44.19599915
         178	1	60	1	0.0	5.13500023	-7.41599989	43.63499832
         179	1	60	3	0.0	5.5250001	-8.41300011	41.42900085
         180	1	60	4	0.0	6.60300016	-7.13100004	44.03099823
         181	1	61	1	0.0	4.53999996	-6.21199989	40.11399841
         182	1	61	3	0.0	5.06799984	-3.9230001	40.45299911
         183	1	61	4	0.0	3.06699991	-6.23600006	39.70999908
         184	1	62	1	0.0	6.15799999	-3.65300012	37.88499832
         185	1	62	3	0.0	5.11499977	-4.25699997	35.76599884
         186	1	62	4	0.0	7.72200012	-3.63400006	37.64199829
         187	1	63	1	0.0	4.49499989	-1.54700005	35.23400116
         188	1	63	3	0.0	5.28700018	0.755	35.20000076
         189	1	63	4	0.0	3.09299994	-1.15199995	35.68700027
         190	1	64	1	0.0	6.54300022	0.40000001	32.70700073
         191	1	64	3	0.0	4.37200022	0.81599998	31.80599976
         192	1	64	4	0.0	7.50199986	-0.226	31.67499924
         193	1	65	1	0.0	4.99700022	3.4230001	31.0529995
         194	1	65	3	0.0	6.11000013	2.45099998	29.12700081
         195	1	65	4	0.0	5.13199997	4.83599997	31.64900017
         196	1	66	1	0.0	5.14799976	4.25199986	27.30699921
         197	1	66	3	0.0	6.98000002	4.53399992	25.75600052
         198	1	66	4	0.0	4.01999998	5.05000019	26.63999939
         199	1	67	1	0.0	8.52400017	6.07499981	27.52899933
         200	1	67	3	0.0	9.79199982	4.07399988	27.96899986
         201	1	67	5	0.0	7.26800013	6.81028692	25.18796255
         202	1	68	1	0.0	11.97599983	5.60699987	28.94599915
         203	1	68	3	0.0	11.01599979	4.90399981	30.99900055
         204	1	68	4	0.0	12.64299965	6.86399984	29.47599983
         205	1	69	1	0.0	12.37800026	2.44499993	31.09399986
         206	1	69	3	0.0	13.38199997	1.94099998	33.23600006
         207	1	69	4	0.0	12.26500034	1.06500006	30.46899986
         208	1	70	1	0.0	15.74600029	3.38700008	32.58300018
         209	1	70	3	0.0	16.06500053	5.51000023	31.60199928
         210	1	70	4	0.0	16.89299965	2.58500004	31.92700005
         211	1	71	1	0.0	16.96500015	6.74599981	33.88800049
         212	1	71	3	0.0	19.15699959	5.78100014	33.54499817
         213	1	71	4	0.0	16.5340004	7.44999981	35.20999908
         214	1	72	1	0.0	20.37299919	8.27900028	33.51699829
         215	1	72	3	0.0	22.47699928	7.47300005	34.28099823
         216	1	72	4	0.0	20.63400078	9.77400017	33.47700119
         217	1	73	1	0.0	21.54700089	6.51599979	36.71699905
         218	1	73	3	0.0	21.87899971	4.2420001	37.47900009
         219	1	73	4	0.0	21.07900047	6.97900009	38.14300156
         220	1	74	1	0.0	20.48999977	3.03200006	35.4109993
         221	1	74	3	0.0	19.19400024	1.27699995	36.44100189
         222	1	74	5	0.0	20.76000023	1.818649	32.48016865
         223	1	75	1	0.0	17.39299965	2.89400005	37.66799927
         224	1	75	3	0.0	16.06999969	3.47900009	35.79100037
         225	1	75	4	0.0	16.96500015	3.9690001	38.70500183
         226	1	76	1	0.0	14.30700016	1.23099995	36.31100082
         227	1	76	3	0.0	13.20600033	2.70099998	37.94200134
         228	1	76	5	0.0	15.56200027	0.19711488	33.16580841
         229	1	77	1	0.0	11.375	3.59899998	36.02500153
         230	1	77	3	0.0	9.69699955	2.52900004	34.64599991
         231	1	77	4	0.0	11.48099995	4.83300018	35.15599823
         232	1	78	1	0.0	8.03800011	2.023	36.85800171
         233	1	78	3	0.0	7.40399981	3.16799998	38.90299988
         234	1	78	4	0.0	8.27099991	0.49900001	36.95399857
         235	1	79	1	0.0	4.80999994	1.98500001	38.82300186
         236	1	79	3	0.0	4.99499989	-0.43200001	38.79299927
         237	1	79	4	0.0	3.36500001	2.23200011	38.26399994
         238	1	80	1	0.0	5.26200008	-0.65200001	41.50400162
         239	1	80	3	0.0	3.39700007	-0.081	42.84999847
         240	1	80	4	0.0	6.38800001	-0.51099998	42.55699921
         241	1	81	1	0.0	2.273	-2.63499999	42.84999847
         242	1	81	3	0.0	3.49000001	-4.48400021	43.66899872
         243	1	81	4	0.0	1.29700005	-3.227	41.86000061
         244	1	82	1	0.0	2.05200005	-4.51599979	46.14500046
         245	1	82	3	0.0	-0.25400001	-4.44199991	46.8730011
         246	1	82	4	0.0	2.55599999	-3.85299993	47.41899872
         247	1	83	1	0.0	-0.76200002	-7.05900002	46.00299835
         248	1	83	3	0.0	-2.92400002	-5.96999979	45.9129982
         249	1	83	4	0.0	-1.09099996	-7.42999983	47.45199966
         250	1	84	1	0.0	-2.54500008	-4.99100018	43.38199997
         251	1	84	3	0.0	-3.2980001	-2.77699995	42.92200089
         252	1	84	5	0.0	-1.528	-4.92278072	39.67432861
         253	1	85	1	0.0	-2.12599993	-1.58599997	45.18700027
         254	1	85	3	0.0	0.30500001	-1.38800001	44.94900131
         255	1	85	4	0.0	-2.14400005	-1.48099995	46.68500137
         256	1	86	1	0.0	0.17299999	1.01699996	43.55500031
         257	1	86	3	0.0	0.21699999	2.58699989	45.32699966
         258	1	86	4	0.0	-0.25299999	2.00600004	42.49399948
         259	1	87	1	0.0	2.88000011	2.10500002	45.97399902
         260	1	87	3	0.0	2.91599989	4.45800018	46.53499985
         261	1	87	4	0.0	4.30200005	1.52900004	46.00899887
         262	1	88	1	0.0	3.3269999	5.34700012	43.94599915
         263	1	88	3	0.0	2.24000001	7.18900013	45.1629982
         264	1	88	4	0.0	3.44499993	5.49900007	42.39599991
         265	1	89	1	0.0	-0.33399999	6.25299978	44.52899933
         266	1	89	3	0.0	-0.99000001	7.28900003	46.5719986
         267	1	89	4	0.0	-1.53199995	5.59899998	43.81299973
         268	1	90	1	0.0	-0.39300001	5.0999999	48.1780014
         269	1	90	3	0.0	-0.043	6.73799992	49.95600128
         270	1	90	4	0.0	-0.085	3.704	48.64199829
         271	1	91	1	0.0	2.523	7.41900015	49.15100098
         272	1	91	3	0.0	1.85000002	9.52900028	49.94100189
         273	1	91	4	0.0	3.8900001	7.39499998	48.46900177
         274	1	92	1	0.0	0.82999998	10.39799976	47.51399994
         275	1	92	3	0.0	-0.63200003	11.59399986	49.05699921
         276	1	92	4	0.0	0.53299999	10.53499985	45.99900055
         277	1	93	1	0.0	-2.53699994	9.56499958	49.16199875
         278	1	93	3	0.0	-3.1400001	10.50599957	51.26200104
         279	1	93	4	0.0	-3.38700008	8.28999996	48.88499832
         280	1	94	1	0.0	-0.90200001	9.56000042	52.60499954
         281	1	94	3	0.0	0.39300001	11.06000042	53.98600006
         282	1	94	4	0.0	-0.197	8.32600021	53.20399857
         283	1	95	1	0.0	1.00899994	12.75699997	52.0379982
         284	1	95	3	0.0	3.1559999	13.21899986	53.0019989
         285	1	95	5	0.0	0.20200001	13.25912616	48.74039154
         286	1	96	1	0.0	4.36299992	10.90999985	52.15999985
         287	1	96	3	0.0	6.45200014	11.1420002	50.88000107
         288	1	96	4	0.0	4.50899982	9.47399998	52.69400024
         289	1	97	1	0.0	5.15700006	11.91100025	48.4980011
         290	1	97	3	0.0	3.16100001	13.1079998	48.05899811
         291	1	97	4	0.0	5.30600023	10.72799969	47.55400085
         292	1	98	1	0.0	4.48500013	14.69400024	46.00500107
         293	1	98	3	0.0	5.42299986	13.40400028	44.29399872
         294	1	98	4	0.0	5.3119998	15.97900009	45.97399902
         295	1	99	1	0.0	3.49399996	14.25	42.37599945
         296	1	99	3	0.0	4.75699997	16.29100037	42.30400085
         297	1	99	4	0.0	2.15100002	14.6079998	41.7480011
         298	1	100	1	0.0	6.77400017	15.15499973	40.58200073
         299	1	100	3	0.0	7.10200024	13.17199993	39.25500107
         300	1	100	4	0.0	7.79199982	15.10599995	41.74200058
         301	1	101	1	0.0	9.00899982	14.46800041	37.63000107
         302	1	101	3	0.0	8.29300022	12.70199966	36.13800049
         303	1	101	4	0.0	9.99499989	13.40799999	38.20399857
         304	1	102	1	0.0	6.046	14.13700008	35.31200027
         305	1	102	3	0.0	6.36999989	15.62899971	33.48699951
         306	1	102	4	0.0	4.64699984	14.70499992	35.63000107
         307	1	103	1	0.0	7.71099997	13.83699989	31.88299942
         308	1	103	3	0.0	6.05200005	12.29800034	31.04599953
         309	1	103	4	0.0	9.10299969	13.15200043	31.77099991
         310	1	104	1	0.0	5.76800013	13.61900043	28.60700035
         311	1	104	3	0.0	4.70800018	11.55500031	27.99699974
         312	1	104	4	0.0	6.03800011	14.52400017	27.375
         313	1	105	1	0.0	6.829	10.07199955	27.7159996
         314	1	105	3	0.0	5.41499996	8.17700005	28.24600029
         315	1	105	5	0.0	6.88700008	8.63550824	25.01210568
         316	1	106	1	0.0	5.82200003	8.57199955	30.99300003
         317	1	106	3	0.0	5.14799976	9.38799953	33.13800049
         318	1	106	4	0.0	7.16400003	8.3380003	31.73800087
         319	1	107	1	0.0	2.63599992	10.24300003	32.30400085
         320	1	107	3	0.0	0.31099999	10.27099991	32.57699966
         321	1	107	4	0.0	2.4749999	11.63500023	31.78499985
         322	1	108	1	0.0	-0.118	7.61199999	31.97599983
         323	1	108	3	0.0	-2.14199996	7.92999983	33.23300171
         324	1	108	4	0.0	0.087	6.14499998	31.58399963
         325	1	109	1	0.0	-1.11500001	7.85300016	35.70500183
         326	1	109	3	0.0	-1.43099999	9.33100033	37.56700134
         327	1	109	4	0.0	-0.546	6.84700012	36.69200134
         328	1	110	1	0.0	-0.70899999	11.58300018	36.19900131
         329	1	110	3	0.0	-1.90699995	12.51799965	38.10300064
         330	1	110	4	0.0	-0.40900001	12.60200024	35.10300064
         331	1	111	1	0.0	-4.32600021	12.39400005	36.82600021
         332	1	111	3	0.0	-5.1869998	12.29199982	39.07500076
         333	1	111	4	0.0	-5.39599991	12.31999969	35.70800018
         334	1	112	1	0.0	-4.84200001	9.45100021	39.23899841
         335	1	112	3	0.0	-4.45599985	9.99300003	41.56600189
         336	1	112	4	0.0	-4.4380002	8.02600002	38.85100174
         337	1	113	1	0.0	-1.86300004	10.57199955	41.23899841
         338	1	113	3	0.0	-2.1500001	12.18799973	42.95700073
         339	1	113	4	0.0	-0.396	10.51299953	40.79800034
         340	1	114	1	0.0	-2.92600012	14.24499989	41.2879982
         341	1	114	3	0.0	-4.41800022	15.00300026	42.98300171
         342	1	114	4	0.0	-3.06999993	15.17800045	40.07600021
         343	1	115	1	0.0	-6.35099983	13.15600014	42.53699875
         344	1	115	3	0.0	-6.52899981	13.35299969	44.94900131
         345	1	115	4	0.0	-7.32299995	12.17599964	41.88999939
         346	1	116	1	0.0	-4.69500017	11.33899975	45.42399979
         347	1	116	3	0.0	-4.22900009	12.59300041	47.4640007
         348	1	116	4	0.0	-3.77800012	10.1590004	45.25099945
         349	1	117	1	0.0	-2.51799989	14.38000011	46.2159996
         350	1	117	3	0.0	-3.46199989	15.91600037	47.7859993
         351	1	117	4	0.0	-1.54200006	15.07800007	45.26399994
         352	1	118	1	0.0	-5.55200005	16.70700073	46.17900085
         353	1	118	3	0.0	-6.55800009	17.11199951	48.32899857
         354	1	118	4	0.0	-6.5	16.99500084	45.01200104
         355	1	119	1	0.0	-7.16900015	14.46500015	48.8409996
         356	1	119	3	0.0	-6.64699984	14.64000034	51.22200012
         357	1	119	4	0.0	-7.8499999	13.12899971	48.47800064
         358	1	120	1	0.0	-3.94899988	14.22399998	50.9679985
         359	1	120	3	0.0	-3.66599989	15.83399963	52.63700104
         360	1	120	4	0.0	-2.52800012	13.75300026	50.53499985
         361	1	121	1	0.0	-3.74300003	17.97800064	50.92300034
         362	1	121	3	0.0	-4.90100002	19.23800087	52.62200165
         363	1	121	4	0.0	-3.56999993	18.84300041	49.67599869
         364	1	122	1	0.0	-7.43200016	18.29299927	51.76699829
         365	1	122	3	0.0	-7.57399988	18.64500046	54.09000015
         366	1	122	4	0.0	-8.59200001	17.57600021	51.05400085
         367	1	123	1	0.0	-6.89400005	16.06900024	54.83399963
         368	1	123	3	0.0	-5.44799995	16.0170002	56.72600174
         369	1	123	4	0.0	-6.87599993	14.54199982	54.77099991
         370	1	124	1	0.0	-3.69700003	18.0189991	55.70700073
         371	1	124	3	0.0	-2.15499997	17.05599976	57.2879982
         372	1	124	4	0.0	-4.09000015	18.93899918	56.86899948
         373	1	125	1	0.0	-1.62699997	14.8039999	55.79199982
         374	1	125	3	0.0	0.37900001	15.33100033	54.52199936
         375	1	125	4	0.0	-1.99100006	13.49800014	55.06499863
         376	1	126	1	0.0	1.99800003	14.58500004	56.8219986
         377	1	126	3	0.0	2.8210001	16.85099983	56.86600113
         378	1	126	4	0.0	2.41199994	13.24199963	56.22999954
         379	1	127	1	0.0	3.81900001	16.77400017	54.22000122
         380	1	127	3	0.0	3.34299994	19.1420002	54.12400055
         381	1	127	4	0.0	4.25199986	16.29899979	52.81100082
         382	1	128	1	0.0	0.68900001	18.92300034	53.92499924
         383	1	128	3	0.0	-0.70200002	20.27099991	55.2859993
         384	1	128	4	0.0	-0.491	18.50399971	53.05500031
         385	1	129	1	0.0	0.44100001	19.52400017	57.74100113
         386	1	129	3	0.0	1.95200002	21.39500046	57.34999847
         387	1	129	4	0.0	0.523	18.39800072	58.79100037

Bond Coeffs

           1	200.0	3.77
           2	200.0	2.41
           3	200.0	2.50
           4	200.0	1.54
           5	200.0	1.54
Bonds

           1	2	1	2
           2	4	1	3
           3	1	1	4
           4	3	2	4
           5	2	4	5
           6	4	4	6
           7	1	4	7
           8	3	5	7
           9	2	7	8
          10	4	7	9
          11	1	7	10
          12	3	8	10
          13	2	10	11
          14	4	10	12
          15	1	10	13
          16	3	11	13
          17	2	13	14
          18	4	13	15
          19	1	13	16
          20	3	14	16
          21	2	16	17
          22	4	16	18
          23	1	16	19
          24	3	17	19
          25	2	19	20
          26	4	19	21
          27	1	19	22
          28	3	20	22
          29	2	22	23
          30	4	22	24
          31	1	22	25
          32	3	23	25
          33	2	25	26
          34	4	25	27
          35	1	25	28
          36	3	26	28
          37	2	28	29
          38	4	28	30
          39	1	28	31
          40	3	29	31
          41	2	31	32
          42	4	31	33
          43	1	31	34
          44	3	32	34
          45	2	34	35
          46	4	34	36
          47	1	34	37
          48	3	35	37
          49	2	37	38
          50	4	37	39
          51	1	37	40
          52	3	38	40
          53	2	40	41
          54	5	40	42
          55	1	40	43
          56	3	41	43
          57	2	43	44
          58	4	43	45
          59	1	43	46
          60	3	44	46
          61	2	46	47
          62	4	46	48
          63	1	46	49
          64	3	47	49
          65	2	49	50
          66	4	49	51
          67	1	49	52
          68	3	50	52
          69	2	52	53
          70	4	52	54
          71	1	52	55
          72	3	53	55
          73	2	55	56
          74	4	55	57
          75	1	55	58
          76	3	56	58
          77	2	58	59
          78	4	58	60
          79	1	58	61
          80	3	59	61
          81	2	61	62
          82	4	61	63
          83	1	61	64
          84	3	62	64
          85	2	64	65
          86	4	64	66
          87	1	64	67
          88	3	65	67
          89	2	67	68
          90	5	67	69
          91	1	67	70
          92	3	68	70
          93	2	70	71
          94	4	70	72
          95	1	70	73
          96	3	71	73
          97	2	73	74
          98	4	73	75
          99	1	73	76
         100	3	74	76
         101	2	76	77
         102	4	76	78
         103	1	76	79
         104	3	77	79
         105	2	79	80
         106	4	79	81
         107	1	79	82
         108	3	80	82
         109	2	82	83
         110	4	82	84
         111	1	82	85
         112	3	83	85
         113	2	85	86
         114	4	85	87
         115	1	85	88
         116	3	86	88
         117	2	88	89
         118	4	88	90
         119	1	88	91
         120	3	89	91
         121	2	91	92
         122	4	91	93
         123	1	91	94
         124	3	92	94
         125	2	94	95
         126	4	94	96
         127	1	94	97
         128	3	95	97
         129	2	97	98
         130	4	97	99
         131	1	97	100
         132	3	98	100
         133	2	100	101
         134	4	100	102
         135	1	100	103
         136	3	101	103
         137	2	103	104
         138	4	103	105
         139	1	103	106
         140	3	104	106
         141	2	106	107
         142	4	106	108
         143	1	106	109
         144	3	107	109
         145	2	109	110
         146	4	109	111
         147	1	109	112
         148	3	110	112
         149	2	112	113
         150	4	112	114
         151	1	112	115
         152	3	113	115
         153	2	115	116
         154	4	115	117
         155	1	115	118
         156	3	116	118
         157	2	118	119
         158	4	118	120
         159	1	118	121
         160	3	119	121
         161	2	121	122
         162	4	121	123
         163	1	121	124
         164	3	122	124
         165	2	124	125
         166	4	124	126
         167	1	124	127
         168	3	125	127
         169	2	127	128
         170	5	127	129
         171	1	127	130
         172	3	128	130
         173	2	130	131
         174	4	130	132
         175	1	130	133
         176	3	131	133
         177	2	133	134
         178	4	133	135
         179	1	133	136
         180	3	134	136
         181	2	136	137
         182	4	136	138
         183	1	136	139
         184	3	137	139
         185	2	139	140
         186	4	139	141
         187	1	139	142
         188	3	140	142
         189	2	142	143
         190	4	142	144
         191	1	142	145
         192	3	143	145
         193	2	145	146
         194	4	145	147
         195	1	145	148
         196	3	146	148
         197	2	148	149
         198	4	148	150
         199	1	148	151
         200	3	149	151
         201	2	151	152
         202	4	151	153
         203	1	151	154
         204	3	152	154
         205	2	154	155
         206	4	154	156
         207	1	154	157
         208	3	155	157
         209	2	157	158
         210	4	157	159
         211	1	157	160
         212	3	158	160
         213	2	160	161
         214	4	160	162
         215	1	160	163
         216	3	161	163
         217	2	163	164
         218	4	163	165
         219	1	163	166
         220	3	164	166
         221	2	166	167
         222	4	166	168
         223	1	166	169
         224	3	167	169
         225	2	169	170
         226	4	169	171
         227	1	169	172
         228	3	170	172
         229	2	172	173
         230	4	172	174
         231	1	172	175
         232	3	173	175
         233	2	175	176
         234	4	175	177
         235	1	175	178
         236	3	176	178
         237	2	178	179
         238	4	178	180
         239	1	178	181
         240	3	179	181
         241	2	181	182
         242	4	181	183
         243	1	181	184
         244	3	182	184
         245	2	184	185
         246	4	184	186
         247	1	184	187
         248	3	185	187
         249	2	187	188
         250	4	187	189
         251	1	187	190
         252	3	188	190
         253	2	190	191
         254	4	190	192
         255	1	190	193
         256	3	191	193
         257	2	193	194
         258	4	193	195
         259	1	193	196
         260	3	194	196
         261	2	196	197
         262	4	196	198
         263	1	196	199
         264	3	197	199
         265	2	199	200
         266	5	199	201
         267	1	199	202
         268	3	200	202
         269	2	202	203
         270	4	202	204
         271	1	202	205
         272	3	203	205
         273	2	205	206
         274	4	205	207
         275	1	205	208
         276	3	206	208
         277	2	208	209
         278	4	208	210
         279	1	208	211
         280	3	209	211
         281	2	211	212
         282	4	211	213
         283	1	211	214
         284	3	212	214
         285	2	214	215
         286	4	214	216
         287	1	214	217
         288	3	215	217
         289	2	217	218
         290	4	217	219
         291	1	217	220
         292	3	218	220
         293	2	220	221
         294	5	220	222
         295	1	220	223
         296	3	221	223
         297	2	223	224
         298	4	223	225
         299	1	223	226
         300	3	224	226
         301	2	226	227
         302	5	226	228
         303	1	226	229
         304	3	227	229
         305	2	229	230
         306	4	229	231