ITEM: TIMESTEP
0
ITEM: NUMBER OF ATOMS
387
ITEM: BOX BOUNDS ss ss ss
-8.632 22.517
-12.8228 21.435
24.9721 59.232
ITEM: ATOMS id type xs ys zs
1 1 0.284536 0.358687 0.149822
2 3 0.235288 0.310056 0.173173
3 4 0.29513 0.38633 0.183418
4 1 0.29757 0.259089 0.196466
5 3 0.366593 0.263555 0.227639
6 4 0.297313 0.224703 0.166606
7 1 0.338727 0.215099 0.289432
8 3 0.355196 0.154879 0.256419
9 4 0.3081 0.205817 0.322707
10 1 0.436579 0.14764 0.293518
11 3 0.454589 0.159813 0.360827
12 4 0.475425 0.160601 0.269817
13 1 0.479502 0.0869241 0.37761
14 3 0.550579 0.11016 0.361761
15 4 0.480561 0.0420293 0.376005
16 1 0.57241 0.111327 0.442438
17 3 0.537674 0.0851143 0.498802
18 4 0.580982 0.154938 0.440745
19 1 0.610453 0.0828667 0.544278
20 3 0.66885 0.129367 0.54959
21 4 0.628014 0.0411536 0.548014
22 1 0.651385 0.146006 0.627524
23 3 0.701339 0.0959732 0.645942
24 4 0.630871 0.150618 0.66795
25 1 0.770554 0.146268 0.643286
26 3 0.783492 0.151581 0.711675
27 4 0.805644 0.155813 0.61363
28 1 0.774086 0.232584 0.715206
29 3 0.758965 0.291053 0.679538
30 4 0.82115 0.238539 0.724955
31 1 0.718386 0.324622 0.747547
32 3 0.790106 0.339567 0.762317
33 4 0.696876 0.326986 0.787944
34 1 0.788276 0.415083 0.733624
35 3 0.779897 0.459277 0.786281
36 4 0.809593 0.425328 0.694278
37 1 0.721821 0.506419 0.754553
38 3 0.657646 0.48584 0.719614
39 4 0.750746 0.542499 0.752539
40 1 0.614081 0.556569 0.733362
41 3 0.568269 0.530268 0.683595
42 5 0.659957 0.559062 0.658479
43 1 0.621144 0.55111 0.622883
44 3 0.651193 0.53164 0.561032
45 4 0.615301 0.591772 0.605486
46 1 0.710617 0.477959 0.598131
47 3 0.707085 0.434582 0.656158
48 4 0.756365 0.492642 0.59565
49 1 0.708626 0.368261 0.61112
50 3 0.737841 0.346339 0.548422
51 4 0.661947 0.353462 0.613338
52 1 0.781727 0.286295 0.580822
53 3 0.736974 0.23238 0.600758
54 4 0.824489 0.276691 0.601079
55 1 0.718386 0.209203 0.526122
56 3 0.774953 0.196125 0.479158
57 4 0.67893 0.224148 0.503881
58 1 0.744647 0.11953 0.462637
59 3 0.674339 0.109196 0.435813
60 4 0.751388 0.0780502 0.478078
61 1 0.699124 0.135555 0.360623
62 3 0.757296 0.119559 0.31719
63 4 0.690295 0.178874 0.350757
64 1 0.710938 0.0601274 0.280208
65 3 0.783011 0.0356366 0.273962
66 4 0.717198 0.0778751 0.240482
67 1 0.787281 0.0101242 0.351195
68 3 0.860252 0.0127513 0.369146
69 5 0.751549 0.00116762 0.29566
70 1 0.863655 0.0978121 0.359543
71 3 0.817458 0.141306 0.392759
72 4 0.874089 0.121719 0.322181
73 1 0.87685 0.163432 0.448451
74 3 0.907381 0.210283 0.405632
75 4 0.9147 0.158616 0.476852
76 1 0.848021 0.268547 0.425859
77 3 0.800058 0.282412 0.479304
78 4 0.816174 0.264197 0.39238
79 1 0.82481 0.359446 0.485229
80 3 0.801631 0.394095 0.429099
81 4 0.858487 0.388986 0.499677
82 1 0.716331 0.400663 0.457792
83 3 0.709333 0.442171 0.514943
84 4 0.676169 0.375471 0.45893
85 1 0.685929 0.50785 0.466256
86 3 0.626665 0.506507 0.420459
87 4 0.715047 0.539463 0.449531
88 1 0.564159 0.52624 0.476268
89 3 0.570997 0.592765 0.457208
90 4 0.539921 0.534238 0.515322
91 1 0.519182 0.581818 0.391621
92 3 0.461138 0.599274 0.433332
93 4 0.494751 0.562874 0.356682
94 1 0.463514 0.679519 0.404172
95 3 0.425856 0.715364 0.454464
96 4 0.419917 0.668806 0.385725
97 1 0.48528 0.692508 0.513046
98 3 0.562008 0.694873 0.510944
99 4 0.464252 0.661654 0.538527
100 1 0.567755 0.733287 0.584733
101 3 0.533982 0.752057 0.64384
102 4 0.584353 0.772869 0.570693
103 1 0.585316 0.706461 0.689754
104 3 0.654788 0.73644 0.686777
105 4 0.588815 0.664077 0.704698
106 1 0.654917 0.762361 0.759865
107 3 0.681563 0.697471 0.769877
108 4 0.63864 0.777073 0.799562
109 1 0.767729 0.722166 0.772066
110 3 0.746541 0.734747 0.837886
111 4 0.810106 0.743212 0.763222
112 1 0.783235 0.665478 0.86582
113 3 0.779511 0.697821 0.926503
114 4 0.810299 0.628815 0.871716
115 1 0.846416 0.752611 0.907764
116 3 0.826608 0.815546 0.930502
117 4 0.888118 0.768783 0.888674
118 1 0.747504 0.817939 0.893024
119 3 0.699124 0.774241 0.929451
120 4 0.734951 0.83055 0.851225
121 1 0.641786 0.834461 0.944016
122 3 0.604482 0.814057 0.885084
123 4 0.622396 0.874832 0.950613
124 1 0.568814 0.74689 0.925306
125 3 0.570034 0.689764 0.885872
126 4 0.529166 0.763499 0.902918
127 1 0.661626 0.691545 0.876444
128 3 0.647918 0.624553 0.877174
129 5 0.633825 0.66737 0.746408
130 1 0.661883 0.613548 0.955604
131 3 0.613792 0.55905 0.946497
132 4 0.671611 0.625166 0.998832
133 1 0.538765 0.605317 0.953094
134 3 0.50923 0.560101 0.906129
135 4 0.509262 0.639674 0.960245
136 1 0.542072 0.596297 0.840426
137 3 0.545122 0.530881 0.81725
138 4 0.557514 0.627326 0.811762
139 1 0.628206 0.518183 0.847694
140 3 0.600212 0.453906 0.845709
141 4 0.673152 0.522474 0.865761
142 1 0.566407 0.459481 0.924314
143 3 0.51594 0.41193 0.900292
144 4 0.555652 0.475653 0.965324
145 1 0.463033 0.469114 0.864098
146 3 0.450095 0.411259 0.824839
147 4 0.442294 0.507733 0.851284
148 1 0.50923 0.428423 0.768009
149 3 0.51793 0.358015 0.761675
150 4 0.541815 0.449586 0.741768
151 1 0.57485 0.3539 0.824868
152 3 0.541462 0.290965 0.824985
153 4 0.604739 0.363766 0.859194
154 1 0.477864 0.312624 0.877524
155 3 0.437574 0.264927 0.842323
156 4 0.45109 0.334634 0.90718
157 1 0.410864 0.312975 0.785055
158 3 0.413625 0.253397 0.746847
159 4 0.398279 0.350397 0.763338
160 1 0.496517 0.259118 0.725101
161 3 0.506276 0.191397 0.725627
162 4 0.535266 0.275553 0.701838
163 1 0.530771 0.188098 0.805662
164 3 0.493242 0.12782 0.816608
165 4 0.556358 0.199336 0.842732
166 1 0.415551 0.159871 0.831377
167 3 0.364474 0.117749 0.799182
168 4 0.383865 0.184449 0.854816
169 1 0.385662 0.143028 0.724722
170 3 0.431667 0.0880042 0.717746
171 4 0.398825 0.168541 0.691534
172 1 0.368583 0.0405698 0.687419
173 3 0.407236 0.0185894 0.632661
174 4 0.325949 0.0175094 0.68736
175 1 0.372917 0.0748685 0.582631
176 3 0.36258 0.14478 0.582982
177 4 0.331086 0.0652065 0.561119
178 1 0.441972 0.157828 0.544745
179 3 0.454493 0.128725 0.480355
180 4 0.489101 0.166147 0.556303
181 1 0.422871 0.192973 0.441971
182 3 0.439822 0.25979 0.451866
183 4 0.375582 0.192272 0.430179
184 1 0.474815 0.267671 0.37691
185 3 0.44133 0.25004 0.315059
186 4 0.525025 0.268226 0.369817
187 1 0.421426 0.329146 0.299531
188 3 0.446852 0.396342 0.298538
189 4 0.376417 0.340676 0.312753
190 1 0.487175 0.38598 0.225771
191 3 0.417477 0.398123 0.199472
192 4 0.517962 0.367707 0.195648
193 1 0.437542 0.474222 0.177493
194 3 0.473274 0.445849 0.121276
195 4 0.441876 0.515468 0.19489
196 1 0.44239 0.498421 0.0681524
197 3 0.501204 0.506653 0.0228808
198 4 0.406177 0.521715 0.0486836
199 1 0.550772 0.551635 0.0746323
200 3 0.59148 0.493225 0.0874753
201 5 0.51045 0.573099 0.00630057
202 1 0.661594 0.537974 0.115993
203 3 0.630775 0.517453 0.175917
204 4 0.683007 0.574667 0.131463
205 1 0.6745 0.445674 0.17869
206 3 0.706732 0.430962 0.241212
207 4 0.670872 0.405391 0.160447
208 1 0.782625 0.473172 0.222152
209 3 0.792867 0.535143 0.193518
210 4 0.819448 0.449761 0.203004
211 1 0.82176 0.571222 0.260243
212 3 0.892131 0.543053 0.250231
213 4 0.807923 0.591772 0.29883
214 1 0.93117 0.615971 0.249414
215 3 0.998716 0.592444 0.271714
216 4 0.939549 0.659611 0.248246
217 1 0.968859 0.564508 0.342818
218 3 0.979518 0.498129 0.365059
219 4 0.953835 0.578023 0.384441
220 1 0.934926 0.462809 0.304697
221 3 0.893319 0.41158 0.334762
222 5 0.943594 0.427391 0.21915
223 1 0.8355 0.458781 0.370576
224 3 0.793027 0.475857 0.315789
225 4 0.82176 0.49016 0.400845
226 1 0.736428 0.410237 0.330967
227 3 0.701082 0.453147 0.378574
228 5 0.776718 0.380058 0.239163
229 1 0.6423 0.47936 0.322619
230 3 0.58843 0.448126 0.282368
231 4 0.645703 0.515381 0.297254
232 1 0.53517 0.433356 0.346933
233 3 0.514816 0.466779 0.406624
234 4 0.54265 0.38887 0.349735
235 1 0.431539 0.432247 0.404289
236 3 0.437478 0.361693 0.403413
237 4 0.385149 0.439457 0.387972
238 1 0.44605 0.355272 0.482544
239 3 0.386176 0.371939 0.521832
240 4 0.482198 0.359387 0.513279
241 1 0.350092 0.297387 0.521832
242 3 0.389162 0.243414 0.545737
243 4 0.318758 0.280106 0.492935
244 1 0.342997 0.24248 0.618008
245 3 0.268965 0.24464 0.639258
246 4 0.359177 0.261833 0.655194
247 1 0.252657 0.168249 0.613863
248 3 0.183248 0.200037 0.611236
249 4 0.242094 0.157419 0.656158
250 1 0.195416 0.228614 0.53736
251 3 0.171241 0.293242 0.523933
252 5 0.228065 0.230606 0.429138
253 1 0.208867 0.328008 0.590045
254 3 0.286911 0.333787 0.583099
255 4 0.208289 0.331073 0.63377
256 1 0.282674 0.40399 0.54241
257 3 0.284086 0.449819 0.594132
258 4 0.268997 0.43286 0.51144
259 1 0.369578 0.435749 0.613017
260 3 0.370734 0.504434 0.629392
261 4 0.41523 0.418936 0.614038
262 1 0.383929 0.530385 0.553822
263 3 0.349032 0.584153 0.589345
264 4 0.387717 0.534822 0.50858
265 1 0.266397 0.556831 0.570839
266 3 0.245337 0.587073 0.630472
267 4 0.227937 0.537741 0.54994
268 1 0.264503 0.523175 0.677349
269 3 0.275739 0.570989 0.729246
270 4 0.274391 0.482425 0.690892
271 1 0.358117 0.590867 0.705749
272 3 0.336512 0.652459 0.728808
273 4 0.402003 0.590167 0.685843
274 1 0.303766 0.677825 0.657967
275 3 0.25683 0.712737 0.703005
276 4 0.294231 0.681825 0.613747
277 1 0.195672 0.65351 0.70607
278 3 0.176314 0.680978 0.767366
279 4 0.168384 0.616292 0.697985
280 1 0.248162 0.653364 0.806567
281 3 0.289736 0.69715 0.846876
282 4 0.270795 0.617343 0.824051
283 1 0.309512 0.746686 0.790017
284 3 0.378439 0.760172 0.818155
285 5 0.283605 0.761343 0.693764
286 1 0.417188 0.692771 0.793578
287 3 0.484253 0.699543 0.756216
288 4 0.421876 0.650854 0.809165
289 1 0.442679 0.721991 0.686689
290 3 0.3786 0.756931 0.673875
291 4 0.447462 0.687458 0.659135
292 1 0.421105 0.803227 0.613922
293 3 0.451218 0.765572 0.56398
294 4 0.447655 0.840737 0.613017
295 1 0.38929 0.790267 0.507996
296 3 0.429837 0.849845 0.505895
297 4 0.346175 0.800717 0.489666
298 1 0.494591 0.816684 0.455632
299 3 0.505121 0.7588 0.416898
300 4 0.527272 0.815254 0.489491
301 1 0.566342 0.79663 0.369467
302 3 0.543356 0.74508 0.325917
303 4 0.597997 0.765689 0.386221
304 1 0.471219 0.786968 0.301808
305 3 0.481621 0.83052 0.248538
306 4 0.426306 0.803549 0.31109
307 1 0.524672 0.778211 0.20172
308 3 0.471412 0.733287 0.177289
309 4 0.56936 0.758216 0.198451
310 1 0.462294 0.771848 0.106098
311 3 0.428264 0.711599 0.0882926
312 4 0.470962 0.798265 0.0701372
313 1 0.496356 0.668309 0.0800906
314 3 0.450962 0.612994 0.0955606
315 5 0.498218 0.626378 0.00116755
316 1 0.464028 0.624524 0.175742
317 3 0.44239 0.648343 0.238351
318 4 0.507111 0.617693 0.197487
319 1 0.361745 0.673301 0.214008
320 3 0.287104 0.674118 0.221977
321 4 0.356576 0.713934 0.198859
322 1 0.273331 0.596501 0.204434
323 3 0.208353 0.605784 0.241124
324 4 0.279913 0.553679 0.192992
325 1 0.241324 0.603536 0.313279
326 3 0.231179 0.646679 0.367628
327 4 0.259591 0.57417 0.342088
328 1 0.254358 0.712416 0.327698
329 3 0.215898 0.739709 0.383273
330 4 0.263989 0.742161 0.295707
331 1 0.138239 0.73609 0.345999
332 3 0.110597 0.733112 0.411644
333 4 0.103888 0.733929 0.313366
334 1 0.121673 0.650182 0.416431
335 3 0.134065 0.666003 0.484353
336 4 0.134643 0.608586 0.405106
337 1 0.21731 0.682905 0.474809
338 3 0.208097 0.730076 0.524955
339 4 0.264407 0.681182 0.461936
340 1 0.183184 0.790121 0.476239
341 3 0.135285 0.812247 0.525714
342 4 0.178561 0.817356 0.440862
343 1 0.0732287 0.758333 0.512695
344 3 0.0675142 0.764083 0.583099
345 4 0.0420238 0.729726 0.49381
346 1 0.126392 0.705294 0.596963
347 3 0.141353 0.741898 0.656508
348 4 0.155832 0.670849 0.591913
349 1 0.196282 0.794062 0.620081
350 3 0.165976 0.838898 0.665907
351 4 0.227616 0.814437 0.592293
352 1 0.0988796 0.861988 0.619001
353 3 0.0665832 0.87381 0.681756
354 4 0.0684452 0.870395 0.584937
355 1 0.0469678 0.796543 0.696701
356 3 0.063726 0.801651 0.766199
357 4 0.0251051 0.757544 0.686105
358 1 0.150342 0.789508 0.758785
359 3 0.159427 0.836505 0.807501
360 4 0.195961 0.775759 0.746146
361 1 0.156955 0.899089 0.757472
362 3 0.119779 0.935869 0.807063
363 4 0.162509 0.924338 0.721073
364 1 0.0385245 0.908284 0.782107
365 3 0.0339658 0.918559 0.849912
366 4 0.00128415 0.887354 0.761295
367 1 0.0557963 0.843364 0.871628
368 3 0.102218 0.841846 0.926853
369 4 0.0563742 0.798791 0.869789
370 1 0.158432 0.900286 0.89711
371 3 0.207936 0.872175 0.943257
372 4 0.145815 0.927141 0.931027
373 1 0.224887 0.806438 0.899591
374 3 0.289287 0.821822 0.862521
375 4 0.213201 0.768316 0.878371
376 1 0.341263 0.800046 0.929655
377 3 0.367684 0.866191 0.93094
378 4 0.354554 0.760843 0.912376
379 1 0.399724 0.863944 0.853706
380 3 0.384443 0.933066 0.850904
381 4 0.413625 0.850078 0.81258
382 1 0.299239 0.926674 0.845096
383 3 0.254583 0.966022 0.884822
384 4 0.261357 0.914443 0.819702
385 1 0.291277 0.944217 0.95648
386 3 0.339786 0.998832 0.945067
387 4 0.29391 0.911349 0.987128
