LAMMPS protain data file

         315  atoms
         418  bonds
           0  angles
           0  dihedrals
           0  impropers

           5  atom types
           5  bond types
           0  angle types
           0  dihedral types
           0  improper types

-200.0	200.0	xlo xhi
-200.0	200.0	ylo yhi
-200.0	200.0	zlo zhi

Masses

           1	27.0
           2	14.0
           3	28.0
           4	60.0
           5	60.0

Atoms

           1	1	1	1	0.0	38.66600037	15.93900013	23.78899956
           2	1	1	3	0.0	40.22299957	15.56999969	22.00600052
           3	1	1	4	0.0	38.52999878	17.37800026	24.33799934
           4	1	2	1	0.0	38.58000183	16.37999916	19.92399979
           5	1	2	3	0.0	38.65100098	18.75600052	19.50799942
           6	1	2	4	0.0	37.26300049	16.08799934	19.13699913
           7	1	3	1	0.0	41.20500183	18.73999977	18.40600014
           8	1	3	3	0.0	41.06299973	18.23200035	16.0510006
           9	1	3	4	0.0	42.67499924	18.39100075	18.58099937
          10	1	4	1	0.0	39.90299988	20.61899948	15.30200005
          11	1	4	3	0.0	41.7480011	22.10199928	14.8739996
          12	1	4	4	0.0	38.8730011	21.75699997	15.37699986
          13	1	5	1	0.0	42.70700073	20.74399948	12.63700008
          14	1	5	3	0.0	41.50699997	21.31599998	10.6420002
          15	1	5	4	0.0	43.34500122	19.40099907	12.13500023
          16	1	6	1	0.0	42.69400024	23.79299927	10.36900043
          17	1	6	3	0.0	43.93500137	25.21299934	8.87800026
          18	1	6	4	0.0	42.06000137	25.04899979	10.97900009
          19	1	7	1	0.0	46.05799866	23.42499924	8.48700047
          20	1	7	3	0.0	46.83300018	21.35400009	9.42500019
          21	1	7	4	0.0	47.04199982	24.59000015	8.81000042
          22	1	8	1	0.0	48.70100021	20.94000053	7.28499985
          23	1	8	3	0.0	50.18399811	20.09799957	8.98999977
          24	1	8	4	0.0	49.29000092	21.04999924	5.87699986
          25	1	9	1	0.0	51.14099884	22.62599945	9.74800014
          26	1	9	3	0.0	51.25	21.54599953	11.88700008
          27	1	9	4	0.0	51.46900177	24.15800095	9.69999981
          28	1	10	1	0.0	48.72000122	22.04400063	12.6789999
          29	1	10	3	0.0	48.73099899	19.94099998	13.80099964
          30	1	10	4	0.0	47.36199951	22.72200012	12.86100006
          31	1	11	1	0.0	48.25899887	18.36499977	11.56099987
          32	1	11	3	0.0	49.64799881	16.8029995	12.75199986
          33	1	11	4	0.0	47.79700089	17.8920002	10.17199993
          34	1	12	1	0.0	52.00400162	17.68499947	11.45100021
          35	1	12	3	0.0	52.97299957	17.02300072	13.51500034
          36	1	12	4	0.0	52.97000122	18.41699982	10.55700016
          37	1	13	1	0.0	52.51100159	19.46800041	14.77600002
          38	1	13	3	0.0	52.45100021	18.11499977	16.73800087
          39	1	13	4	0.0	52.13100052	20.90699959	15.14500046
          40	1	14	1	0.0	49.78699875	17.39900017	16.44199944
          41	1	14	3	0.0	50.39300156	15.31599998	17.4109993
          42	1	14	4	0.0	48.30400085	17.34499931	16.04700089
          43	1	15	1	0.0	51.24599838	14.11100006	15.20899963
          44	1	15	3	0.0	53.00799942	12.99499989	16.39100075
          45	1	15	4	0.0	51.31700134	13.6420002	13.77799988
          46	1	16	1	0.0	54.66699982	15.21399975	16.57099915
          47	1	16	3	0.0	54.97299957	14.45499992	18.85499954
          48	1	16	4	0.0	55.45199966	16.46299934	16.11100006
          49	1	17	1	0.0	53.32699966	16.30200005	20.0510006
          50	1	17	3	0.0	52.59000015	15.00399971	21.93499947
          51	1	17	4	0.0	52.49200058	17.56900024	20.32299995
          52	1	18	1	0.0	51.32500076	13.06299973	20.52400017
          53	1	18	3	0.0	51.89799881	11.36100006	22.06399918
          54	1	18	4	0.0	50.56299973	12.23700047	19.46699905
          55	1	19	1	0.0	54.5909996	11.3210001	21.40699959
          56	1	19	3	0.0	54.34199905	9.42199993	19.91900063
          57	1	19	5	0.0	53.57500076	10.70707163	20.80458435
          58	1	20	1	0.0	53.88600159	7.64699984	22.08799934
          59	1	20	3	0.0	52.05899811	6.17600012	21.72299957
          60	1	20	4	0.0	54.43600082	7.01200008	23.40500069
          61	1	21	1	0.0	50.04199982	7.9289999	22.07500076
          62	1	21	3	0.0	49.89500046	8.14500046	19.68799973
          63	1	21	4	0.0	49.26599884	9.04599953	22.72699928
          64	1	22	1	0.0	47.61899948	6.59499979	19.4640007
          65	1	22	3	0.0	46.40499878	8.58399963	19.98800087
          66	1	22	4	0.0	46.56100082	5.52099991	19.69799995
          67	1	23	1	0.0	46.14799881	9.34799957	17.29100037
          68	1	23	3	0.0	45.4469986	7.92199993	15.48499966
          69	1	23	4	0.0	47.0530014	10.31099987	16.49200058
          70	1	24	1	0.0	42.68600082	8.72999954	15.70400047
          71	1	24	3	0.0	41.97999954	11.02700043	15.60200024
          72	1	24	4	0.0	41.44800186	8.28100014	16.53499985
          73	1	25	1	0.0	41.82699966	11.21000004	12.8760004
          74	1	25	3	0.0	40.35499954	9.82699966	11.5710001
          75	1	25	4	0.0	42.85800171	11.55700016	11.79100037
          76	1	26	1	0.0	38.23699951	11.54500008	11.69200039
          77	1	26	3	0.0	38.2820015	13.76000023	10.74100018
          78	1	26	4	0.0	37.09500122	11.84599972	12.64000034
          79	1	27	1	0.0	38.16699982	12.90499973	8.1239996
          80	1	27	3	0.0	36.11000061	11.97099972	7.43900013
          81	1	27	4	0.0	38.91199875	12.3039999	6.93100023
          82	1	28	1	0.0	34.62599945	14.24300003	7.59100008
          83	1	28	3	0.0	35.13600159	16.16399956	6.22700024
          84	1	28	4	0.0	33.90599823	14.44299984	8.93700027
          85	1	29	1	0.0	32.47800064	16.46699905	5.35699987
          86	1	29	3	0.0	30.42200089	15.92300034	6.4920001
          87	1	29	4	0.0	32.21699905	15.90299988	3.97900009
          88	1	30	1	0.0	29.5340004	18.61599922	6.49399996
          89	1	30	3	0.0	27.22400093	17.89599991	6.40399981
          90	1	30	4	0.0	29.56599998	20.18700027	6.4749999
          91	1	31	1	0.0	27.32299995	17.32500076	3.71199989
          92	1	31	3	0.0	25.94300079	15.35099983	3.41100001
          93	1	31	4	0.0	27.64900017	17.65699959	2.24499989
          94	1	32	1	0.0	27.78300095	13.65400028	4.49499989
          95	1	32	3	0.0	27.47999954	13.40799999	6.86199999
          96	1	32	4	0.0	29.19599915	13.19299984	4.42399979
          97	1	33	1	0.0	24.97800064	12.15299988	6.60500002
          98	1	33	3	0.0	25.5739994	11.56299973	8.83399963
          99	1	33	5	0.0	25.85499954	11.53182304	6.55427028
         100	1	34	1	0.0	27.01000023	9.2670002	8.25899982
         101	1	34	3	0.0	28.22299957	9.61800003	10.26399994
         102	1	34	4	0.0	27.66300011	8.22500038	7.39300013
         103	1	35	1	0.0	29.5739994	11.91699982	9.375
         104	1	35	3	0.0	29.40099907	12.58399963	11.65499973
         105	1	35	4	0.0	30.23699951	12.95600033	8.46899986
         106	1	36	1	0.0	26.90200043	13.80799961	11.38500023
         107	1	36	3	0.0	26.4489994	13.09000015	13.63099957
         108	1	36	4	0.0	25.71999931	14.53600025	10.73799992
         109	1	37	1	0.0	25.52099991	10.54699993	12.7510004
         110	1	37	3	0.0	26.19199944	9.85700035	14.96700001
         111	1	37	4	0.0	25.16900063	9.41800022	11.77099991
         112	1	38	1	0.0	28.85899925	9.45699978	14.31400013
         113	1	38	3	0.0	30.38800049	10.25699997	15.99400043
         114	1	38	4	0.0	29.87000084	8.58300018	13.50800037
         115	1	39	1	0.0	30.12800026	12.89000034	15.57999992
         116	1	39	3	0.0	31.01799965	12.99100018	17.80800056
         117	1	39	4	0.0	29.72599983	14.26299953	15.01900005
         118	1	40	1	0.0	28.66799927	12.64999962	19.20700073
         119	1	40	3	0.0	30.1060009	11.59000015	20.71299934
         120	1	40	4	0.0	27.17499924	12.57699966	19.45700073
         121	1	41	1	0.0	29.99099922	9.06599998	19.5739994
         122	1	41	3	0.0	32.22600174	8.96100044	20.42200089
         123	1	41	4	0.0	29.53199959	7.84800005	18.75
         124	1	42	1	0.0	33.46699905	10.24600029	18.32500076
         125	1	42	3	0.0	34.90800095	10.95800018	20.09300041
         126	1	42	4	0.0	33.76699829	10.91699982	17.01000023
         127	1	43	1	0.0	33.39799881	13.06999969	20.88299942
         128	1	43	3	0.0	34.05599976	12.48600006	23.0720005
         129	1	43	4	0.0	32.51300049	14.35700035	20.79700089
         130	1	44	1	0.0	32.25600052	10.54899979	23.63299942
         131	1	44	3	0.0	33.99200058	9.58100033	24.94799995
         132	1	44	4	0.0	31.01499939	9.65299988	23.65999985
         133	1	45	1	0.0	35.29600143	8.31900024	22.79999924
         134	1	45	3	0.0	37.26800156	8.6260004	24.07500076
         135	1	45	4	0.0	35.61100006	7.74900007	21.42000008
         136	1	46	1	0.0	37.57799911	11.28800011	23.43600082
         137	1	46	3	0.0	38.55500031	11.89799976	25.53199959
         138	1	46	4	0.0	37.61199951	12.63599968	22.68000031
         139	1	47	1	0.0	36.23500061	11.71399975	26.99099922
         140	1	47	3	0.0	36.89500046	10.40200043	28.83799934
         141	1	47	4	0.0	34.87900162	12.21899986	27.34000015
         142	1	48	1	0.0	36.34999847	7.97300005	27.71199989
         143	1	48	3	0.0	38.31800079	6.92799997	28.68499947
         144	1	48	4	0.0	35.47999954	7.00699997	26.93400002
         145	1	49	1	0.0	39.90999985	7.39300013	26.45700073
         146	1	49	3	0.0	41.01499939	9.36400032	25.54800034
         147	1	49	4	0.0	40.15800095	6.6789999	25.12000084
         148	1	50	1	0.0	42.14799881	10.10499954	27.87800026
         149	1	50	3	0.0	44.35300064	10.76900005	27.26499939
         150	1	50	4	0.0	42.06999969	10.49699974	29.37199974
         151	1	51	1	0.0	45.29199982	8.23499966	26.7310009
         152	1	51	3	0.0	46.39400101	7.57399988	24.64699936
         153	1	51	4	0.0	45.64500046	6.89400005	27.40299988
         154	1	52	1	0.0	44.40499878	8.57600021	22.97100067
         155	1	52	3	0.0	43.33800125	10.72500038	23.20999908
         156	1	52	4	0.0	43.28300095	7.5539999	22.51499939
         157	1	53	1	0.0	44.44599915	11.86699963	20.91699982
         158	1	53	3	0.0	43.55099869	10.86400032	18.90099907
         159	1	53	4	0.0	45.81299973	12.43799973	20.38999939
         160	1	54	1	0.0	41.3429985	12.55599976	18.76099968
         161	1	54	3	0.0	41.25	14.91600037	18.58499908
         162	1	54	4	0.0	39.98099899	12.41800022	19.46800041
         163	1	55	1	0.0	41.63899994	14.85900021	15.70699978
         164	1	55	3	0.0	39.9679985	13.72399998	14.4460001
         165	1	55	4	0.0	42.9090004	14.69699955	14.88500023
         166	1	56	1	0.0	38.94800186	16.11100006	13.28499985
         167	1	56	3	0.0	40.00799942	18.1079998	12.40299988
         168	1	56	4	0.0	37.61700058	16.6970005	13.78899956
         169	1	57	1	0.0	39.85200119	17.24300003	9.75
         170	1	57	3	0.0	38.09700012	16.27799988	8.42599964
         171	1	57	4	0.0	40.95700073	16.50399971	9.00199986
         172	1	58	1	0.0	37.02500153	18.64999962	7.66300011
         173	1	58	3	0.0	38.50600052	19.57299995	6.01900005
         174	1	58	4	0.0	36.3390007	19.95499992	7.9749999
         175	1	59	1	0.0	38.00600052	17.68199921	4.07800007
         176	1	59	3	0.0	38.63499832	19.2329998	2.37700009
         177	1	59	4	0.0	37.59400177	16.37800026	3.296
         178	1	60	1	0.0	36.49599838	20.93099976	2.76099992
         179	1	60	3	0.0	37.97900009	22.74600029	2.43799996
         180	1	60	4	0.0	35.06399918	21.43600082	2.97199988
         181	1	61	1	0.0	38.76800156	23.1609993	4.97800016
         182	1	61	3	0.0	41.03300095	23.61000061	4.37400007
         183	1	61	4	0.0	38.72000122	23.43199921	6.45900011
         184	1	62	1	0.0	41.87599945	21.05400085	4.62200022
         185	1	62	3	0.0	42.45600128	19.02300072	3.52200007
         186	1	62	4	0.0	42.41500092	20.31900024	5.83199978
         187	1	63	1	0.0	41.70100021	19.86400032	1.02199996
         188	1	63	3	0.0	43.19499969	18.12999916	0.324
         189	1	63	4	0.0	41.29499817	20.70199966	-0.15800001
         190	1	64	1	0.0	45.51100159	19.51799965	0.95700002
         191	1	64	3	0.0	46.44499969	17.40399933	1.46200001
         192	1	64	4	0.0	46.5	20.67000008	1.19200003
         193	1	65	1	0.0	45.54899979	17.25600052	4.13600016
         194	1	65	3	0.0	45.24900055	14.91600037	3.58999991
         195	1	65	4	0.0	45.1230011	17.68000031	5.58900023
         196	1	66	1	0.0	42.625	15.27099991	2.60899997
         197	1	66	3	0.0	43.36700058	13.34300041	1.41299999
         198	1	66	4	0.0	41.29600143	15.92700005	2.16499996
         199	1	67	1	0.0	44.49499893	14.70600033	-0.78500003
         200	1	67	3	0.0	45.9129982	12.82299995	-0.85000002
         201	1	67	4	0.0	45.0719986	15.69200039	-1.79799998
         202	1	68	1	0.0	47.80199814	13.81599998	0.85500002
         203	1	68	3	0.0	48.32500076	11.6079998	1.52199996
         204	1	68	4	0.0	48.70399857	14.77700043	1.602
         205	1	69	1	0.0	46.17100143	11.32800007	3.20499992
         206	1	69	3	0.0	44.92599869	9.25699997	2.89100003
         207	1	69	4	0.0	45.45500183	11.72999954	4.53100014
         208	1	70	1	0.0	44.38199997	9.8039999	0.139
         209	1	70	3	0.0	42.6269989	8.19699955	0.50599998
         210	1	70	4	0.0	45.23300171	8.58500004	-0.223
         211	1	71	1	0.0	40.92100143	10.06900024	1.67700005
         212	1	71	3	0.0	40.17399979	10.875	-0.48800001
         213	1	71	4	0.0	40.48500061	11.21100044	2.6559999
         214	1	72	1	0.0	38.15399933	8.94799995	-0.653
         215	1	72	3	0.0	35.83399963	8.93500042	-1.03199995
         216	1	72	4	0.0	38.64099884	7.82299995	-1.59300005
         217	1	73	1	0.0	35.11500168	8.01900005	1.50699997
         218	1	73	3	0.0	35.98300171	9.24400043	3.35800004
         219	1	73	4	0.0	34.93299866	6.51999998	1.81400001
         220	1	74	1	0.0	33.50400162	9.94799995	4.45499992
         221	1	74	3	0.0	31.66399956	8.4630003	4.76499987
         222	1	74	4	0.0	32.6609993	11.22500038	4.28399992
         223	1	75	1	0.0	34.00999832	9.35299969	7.34100008
         224	1	75	3	0.0	34.83100128	7.13700008	6.74599981
         225	1	75	4	0.0	33.58300018	9.4289999	8.79899979
         226	1	76	1	0.0	37.46099854	7.77699995	7.10699987
         227	1	76	3	0.0	38.34600067	9.15799999	8.86299992
         228	1	76	4	0.0	38.41500092	8.05200005	5.91400003
         229	1	77	1	0.0	39.3390007	7.11299992	10.37699986
         230	1	77	3	0.0	40.85200119	5.50299978	9.57699966
         231	1	77	4	0.0	38.70199966	6.28499985	11.47500038
         232	1	78	1	0.0	43.12400055	6.91599989	10.15600014
         233	1	78	3	0.0	43.44599915	7.79500008	12.38599968
         234	1	78	4	0.0	43.95899963	7.79300022	9.24400043
         235	1	79	1	0.0	45.1969986	5.7249999	13.1260004
         236	1	79	3	0.0	47.27700043	5.30700016	12.03999996
         237	1	79	4	0.0	44.84799957	4.3130002	13.61400032
         238	1	80	1	0.0	48.79999924	6.87200022	13.69999981
         239	1	80	3	0.0	48.86000061	6.83400011	16.09900093
         240	1	80	4	0.0	49.09400177	8.35000038	13.32299995
         241	1	81	1	0.0	51.43399811	5.94299984	16.1970005
         242	1	81	3	0.0	53.31600189	5.84600019	14.76399994
         243	1	81	4	0.0	51.4070015	4.49499989	16.60300064
         244	1	82	1	0.0	54.77799988	7.78399992	16.19799995
         245	1	82	3	0.0	55.83499908	7.74900007	14.00199986
         246	1	82	4	0.0	55.79399872	6.70300007	16.57799911
         247	1	83	1	0.0	53.95600128	9.50500011	12.94099998
         248	1	83	3	0.0	53.5340004	8.96100044	10.69099998
         249	1	83	5	0.0	53.97600174	10.03801006	11.54000008
         250	1	84	1	0.0	53.31399918	6.20200014	11.07299995
         251	1	84	3	0.0	51.25	5.64799976	12.13300037
         252	1	84	4	0.0	54.18799973	4.9829998	11.37699986
         253	1	85	1	0.0	49.77099991	5.22300005	9.83500004
         254	1	85	3	0.0	50.36000061	2.94499993	9.41899967
         255	1	85	4	0.0	49.17699814	5.49599981	8.44400024
         256	1	86	1	0.0	48.95700073	1.90900004	11.55700016
         257	1	86	3	0.0	47.39599991	0.148	11.78899956
         258	1	86	4	0.0	49.36000061	1.70200002	13.04399967
         259	1	87	1	0.0	45.24300003	1.44299996	10.6420002
         260	1	87	3	0.0	44.64500046	3.65100002	9.89000034
         261	1	87	5	0.0	46.58399963	0.18712106	10.21219046
         262	1	88	1	0.0	42.43099976	2.86599994	8.51599979
         263	1	88	3	0.0	41.375	0.91100001	7.78299999
         264	1	88	4	0.0	43.09600067	3.29699993	7.21600008
         265	1	89	1	0.0	38.86000061	2.11999989	7.65700006
         266	1	89	3	0.0	38.07300186	4.3499999	7.87099981
         267	1	89	4	0.0	38.18000031	1.07799995	8.59000015
         268	1	90	1	0.0	35.85400009	4.03999996	6.24300003
         269	1	90	3	0.0	34.30199814	2.31800008	6.85900021
         270	1	90	4	0.0	35.81399918	4.375	4.7329998
         271	1	91	1	0.0	32.22600174	4.13000011	7.37599993
         272	1	91	3	0.0	32.81800079	4.39499998	9.72000027
         273	1	91	5	0.0	33.57899857	3.34547902	6.40618455
         274	1	92	1	0.0	30.28199959	5.1960001	10.42199993
         275	1	92	3	0.0	28.78100014	3.70099998	11.56700039
         276	1	92	4	0.0	29.06900024	6.12699986	10.34700012
         277	1	93	1	0.0	30.68799973	1.91400003	12.32699966
         278	1	93	3	0.0	32.47299957	2.18499994	13.93299961
         279	1	93	4	0.0	31.39800072	0.76300001	11.63500023
         280	1	94	1	0.0	30.72200012	2.58200002	16.12400055
         281	1	94	3	0.0	32.54899979	1.72800004	17.51600075
         282	1	94	4	0.0	29.44300079	2.82800007	16.94000053
         283	1	95	1	0.0	31.72800064	-0.89300001	17.20100021
         284	1	95	3	0.0	34.06200027	-1.31200004	17.40200043
         285	1	95	4	0.0	30.84799957	-2.08999991	16.87899971
         286	1	96	1	0.0	34.57699966	-1.17299998	14.79300022
         287	1	96	3	0.0	36.6780014	-0.227	15.26000023
         288	1	96	4	0.0	34.40499878	-1.32099998	13.29500008
         289	1	97	1	0.0	35.86000061	2.37899995	15.75399971
         290	1	97	3	0.0	37.74000168	2.04999995	17.27300072
         291	1	97	4	0.0	35.07400131	3.65400004	15.94099998
         292	1	98	1	0.0	36.10900116	1.50199997	19.4279995
         293	1	98	3	0.0	37.95299911	0.208	20.20700073
         294	1	98	4	0.0	34.87900162	1.35399997	20.30400085
         295	1	99	1	0.0	37.34600067	-2.05599999	18.67499924
         296	1	99	3	0.0	39.72200012	-2.5250001	18.61899948
         297	1	99	4	0.0	36.59999847	-3.08800006	17.84900093
         298	1	100	1	0.0	40.23600006	-0.80800003	16.49300003
         299	1	100	3	0.0	42.31299973	-0.22499999	17.60099983
         300	1	100	4	0.0	40.02899933	-0.045	15.16100025
         301	1	101	1	0.0	41.18799973	1.78900003	19.21699905
         302	1	101	3	0.0	42.8769989	0.81900001	20.60499954
         303	1	101	4	0.0	40.20299911	2.829	19.82299995
         304	1	102	1	0.0	41.40000153	-1.09800005	21.79400063
         305	1	102	3	0.0	43.19900131	-2.69799995	22.01499939
         306	1	102	4	0.0	40.20800018	-1.86399996	22.39999962
         307	1	103	1	0.0	43.60100174	-3.17499995	19.41699982
         308	1	103	3	0.0	46.01100159	-2.99699998	19.46500015
         309	1	103	4	0.0	43.18600082	-3.64299989	18.01099968
         310	1	104	1	0.0	46.02099991	-0.333	18.72599983
         311	1	104	3	0.0	47.74700165	0.89399999	19.7329998
         312	1	104	4	0.0	45.71300125	0.62	17.53499985
         313	1	105	1	0.0	46.3429985	1.50600004	22.0189991
         314	1	105	3	0.0	47.73199844	-0.30500001	22.77300072
         315	1	105	4	0.0	45.12099838	1.75600004	22.92700005

Bond Coeffs

           1	200.0	3.77
           2	200.0	2.41
           3	200.0	2.50
           4	200.0	1.54
           5	200.0	1.54
Bonds

           1	2	1	2
           2	4	1	3
           3	1	1	4
           4	3	2	4
           5	2	4	5
           6	4	4	6
           7	1	4	7
           8	3	5	7
           9	2	7	8
          10	4	7	9
          11	1	7	10
          12	3	8	10
          13	2	10	11
          14	4	10	12
          15	1	10	13
          16	3	11	13
          17	2	13	14
          18	4	13	15
          19	1	13	16
          20	3	14	16
          21	2	16	17
          22	4	16	18
          23	1	16	19
          24	3	17	19
          25	2	19	20
          26	4	19	21
          27	1	19	22
          28	3	20	22
          29	2	22	23
          30	4	22	24
          31	1	22	25
          32	3	23	25
          33	2	25	26
          34	4	25	27
          35	1	25	28
          36	3	26	28
          37	2	28	29
          38	4	28	30
          39	1	28	31
          40	3	29	31
          41	2	31	32
          42	4	31	33
          43	1	31	34
          44	3	32	34
          45	2	34	35
          46	4	34	36
          47	1	34	37
          48	3	35	37
          49	2	37	38
          50	4	37	39
          51	1	37	40
          52	3	38	40
          53	2	40	41
          54	4	40	42
          55	1	40	43
          56	3	41	43
          57	2	43	44
          58	4	43	45
          59	1	43	46
          60	3	44	46
          61	2	46	47
          62	4	46	48
          63	1	46	49
          64	3	47	49
          65	2	49	50
          66	4	49	51
          67	1	49	52
          68	3	50	52
          69	2	52	53
          70	4	52	54
          71	1	52	55
          72	3	53	55
          73	2	55	56
          74	5	55	57
          75	1	55	58
          76	3	56	58
          77	2	58	59
          78	4	58	60
          79	1	58	61
          80	3	59	61
          81	2	61	62
          82	4	61	63
          83	1	61	64
          84	3	62	64
          85	2	64	65
          86	4	64	66
          87	1	64	67
          88	3	65	67
          89	2	67	68
          90	4	67	69
          91	1	67	70
          92	3	68	70
          93	2	70	71
          94	4	70	72
          95	1	70	73
          96	3	71	73
          97	2	73	74
          98	4	73	75
          99	1	73	76
         100	3	74	76
         101	2	76	77
         102	4	76	78
         103	1	76	79
         104	3	77	79
         105	2	79	80
         106	4	79	81
         107	1	79	82
         108	3	80	82
         109	2	82	83
         110	4	82	84
         111	1	82	85
         112	3	83	85
         113	2	85	86
         114	4	85	87
         115	1	85	88
         116	3	86	88
         117	2	88	89
         118	4	88	90
         119	1	88	91
         120	3	89	91
         121	2	91	92
         122	4	91	93
         123	1	91	94
         124	3	92	94
         125	2	94	95
         126	4	94	96
         127	1	94	97
         128	3	95	97
         129	2	97	98
         130	5	97	99
         131	1	97	100
         132	3	98	100
         133	2	100	101
         134	4	100	102
         135	1	100	103
         136	3	101	103
         137	2	103	104
         138	4	103	105
         139	1	103	106
         140	3	104	106
         141	2	106	107
         142	4	106	108
         143	1	106	109
         144	3	107	109
         145	2	109	110
         146	4	109	111
         147	1	109	112
         148	3	110	112
         149	2	112	113
         150	4	112	114
         151	1	112	115
         152	3	113	115
         153	2	115	116
         154	4	115	117
         155	1	115	118
         156	3	116	118
         157	2	118	119
         158	4	118	120
         159	1	118	121
         160	3	119	121
         161	2	121	122
         162	4	121	123
         163	1	121	124
         164	3	122	124
         165	2	124	125
         166	4	124	126
         167	1	124	127
         168	3	125	127
         169	2	127	128
         170	4	127	129
         171	1	127	130
         172	3	128	130
         173	2	130	131
         174	4	130	132
         175	1	130	133
         176	3	131	133
         177	2	133	134
         178	4	133	135
         179	1	133	136
         180	3	134	136
         181	2	136	137
         182	4	136	138
         183	1	136	139
         184	3	137	139
         185	2	139	140
         186	4	139	141
         187	1	139	142
         188	3	140	142
         189	2	142	143
         190	4	142	144
         191	1	142	145
         192	3	143	145
         193	2	145	146
         194	4	145	147
         195	1	145	148
         196	3	146	148
         197	2	148	149
         198	4	148	150
         199	1	148	151
         200	3	149	151
         201	2	151	152
         202	4	151	153
         203	1	151	154
         204	3	152	154
         205	2	154	155
         206	4	154	156
         207	1	154	157
         208	3	155	157
         209	2	157	158
         210	4	157	159
         211	1	157	160
         212	3	158	160
         213	2	160	161
         214	4	160	162
         215	1	160	163
         216	3	161	163
         217	2	163	164
         218	4	163	165
         219	1	163	166
         220	3	164	166
         221	2	166	167
         222	4	166	168
         223	1	166	169
         224	3	167	169
         225	2	169	170
         226	4	169	171
         227	1	169	172
         228	3	170	172
         229	2	172	173
         230	4	172	174
         231	1	172	175
         232	3	173	175
         233	2	175	176
         234	4	175	177
         235	1	175	178
         236	3	176	178
         237	2	178	179
         238	4	178	180
         239	1	178	181
         240	3	179	181
         241	2	181	182
         242	4	181	183
         243	1	181	184
         244	3	182	184
         245	2	184	185
         246	4	184	186
         247	1	184	187
         248	3	185	187
         249	2	187	188
         250	4	187	189
         251	1	187	190
         252	3	188	190
         253	2	190	191
         254	4	190	192
         255	1	190	193
         256	3	191	193
         257	2	193	194
         258	4	193	195
         259	1	193	196
         260	3	194	196
         261	2	196	197
         262	4	196	198
         263	1	196	199
         264	3	197	199
         265	2	199	200
         266	4	199	201
         267	1	199	202
         268	3	200	202
         269	2	202	203
         270	4	202	204
         271	1	202	205
         272	3	203	205
         273	2	205	206
         274	4	205	207
         275	1	205	208
         276	3	206	208
         277	2	208	209
         278	4	208	210
         279	1	208	211
         280	3	209	211
         281	2	211	212
         282	4	211	213
         283	1	211	214
         284	3	212	214
         285	2	214	215
         286	4	214	216
         287	1	214	217
         288	3	215	217
         289	2	217	218
         290	4	217	219
         291	1	217	220
         292	3	218	220
         293	2	220	221
         294	4	220	222
         295	1	220	223
         296	3	221	223
         297	2	223	224
         298	4	223	225
         299	1	223	226
         300	3	224	226
         301	2	226	227
         302	4	226	228
         303	1	226	229
         304	3	227	229
         305	2	229	230
         306	4	229	231
         307	1	229	232
         308	3	230	232
         309	2	232	233
         310	4	232	234
         311	1	232	235
         312	3	233	235
         313	2	235	236
         314	4	235	237
         315	1	235	238
         316	3	236	238
         317	2	238	239
         318	4	238	240
         319	1	238	241
         320	3	239	241
         321	2	241	242
         322	4	241	243
         323	1	241	244
         324	3	242	244
         325	2	244	245
         326	4	244	246
         327	1	244	247
         328	3	245	247
         329	2	247	248
         330	5	247	249
         331	1	247	250
         332	3	248	250
         333	2	250	251
         334	4	250	252
         335	1	250	253
         336	3	251	253
         337	2	253	254
         338	4	253	255
         339	1	253	256
         340	3	254	256
         341	2	256	257
         342	4	256	258
         343	1	256	259
         344	3	257	259
         345	2	259	260
         346	5	259	261
         347	1	259	262
         348	3	260	262
         349	2	262	263
         350	4	262	264
         351	1	262	265
         352	3	263	265
         353	2	265	266
         354	4	265	267
         355	1	265	268
         356	3	266	268
         357	2	268	269
         358	4	268	270
         359	1	268	271
         360	3	269	271
         361	2	271	272
         362	5	271	273
         363	1	271	274
         364	3	272	274
         365	2	274	275
         366	4	274	276
         367	1	274	277
         368	3	275	277
         369	2	277	278
         370	4	277	279
         371	1	277	280
         372	3	278	280
         373	2	280	281
         374	4	280	282
         375	1	280	283
         376	3	281	283
         377	2	283	284
         378	4	283	285
         379	1	283	286
         380	3	284	286
         381	2	286	287
         382	4	286	288
         383	1	286	289
         384	3	287	289
         385	2	289	290
         386	4	289	291
         387	1	289	292
         388	3	290	292
         389	2	292	293
         390	4	292	294
         391	1	292	295
         392	3	293	295
         393	2	295	296
         394	4	295	297
         395	1	295	298
         396	3	296	298
         397	2	298	299
         398	4	298	300
         399	1	298	301
         400	3	299	301
         401	2	301	302
         402	4	301	303
         403	1	301	304
         404	3	302	304
         405	2	304	305
         406	4	304	306
         407	1	304	307
         408	3	305	307
         409	2	307	308
         410	4	307	309
         411	1	307	310
         412	3	308	310
         413	2	310	311
         414	4	310	312
         415	1	310	313
         416	3	311	313
         417	2	313	314
         418	4	313	315

