ITEM: TIMESTEP
0
ITEM: NUMBER OF ATOMS
315
ITEM: BOX BOUNDS ss ss ss
24.938 55.875
-3.683 25.253
-1.838 29.412
ITEM: ATOMS id type xs ys zs
1 1 0.443741 0.678117 0.820064
2 3 0.494069 0.665365 0.763008
3 4 0.439344 0.727848 0.837632
4 1 0.440961 0.693358 0.696384
5 3 0.443256 0.77547 0.683072
6 4 0.39839 0.683267 0.6712
7 1 0.525811 0.774917 0.647808
8 3 0.521221 0.757361 0.572448
9 4 0.573326 0.762856 0.653408
10 1 0.483725 0.839853 0.54848
11 3 0.543362 0.891105 0.534784
12 4 0.450432 0.879182 0.55088
13 1 0.574361 0.844173 0.4632
14 3 0.535572 0.863941 0.39936
15 4 0.594983 0.797761 0.447136
16 1 0.573941 0.949544 0.390624
17 3 0.614054 0.998618 0.342912
18 4 0.553447 0.99295 0.410144
19 1 0.682678 0.936826 0.3304
20 3 0.707729 0.865254 0.360416
21 4 0.714484 0.977087 0.340736
22 1 0.768109 0.850947 0.291936
23 3 0.816045 0.821848 0.346496
24 4 0.787148 0.854748 0.24688
25 1 0.846979 0.909213 0.370752
26 3 0.850503 0.87189 0.4392
27 4 0.857582 0.962158 0.369216
28 1 0.768724 0.8891 0.464544
29 3 0.769079 0.816422 0.500448
30 4 0.724828 0.912531 0.470368
31 1 0.753822 0.761957 0.428768
32 3 0.79872 0.707976 0.46688
33 4 0.738889 0.745611 0.38432
34 1 0.874875 0.738457 0.425248
35 3 0.906196 0.715579 0.491296
36 4 0.9061 0.763755 0.39664
37 1 0.891263 0.800076 0.531648
38 3 0.889323 0.753318 0.594432
39 4 0.87898 0.849806 0.543456
40 1 0.803213 0.728573 0.58496
41 3 0.822801 0.656587 0.615968
42 4 0.755277 0.726707 0.57232
43 1 0.850373 0.614943 0.545504
44 3 0.907328 0.576375 0.583328
45 4 0.852668 0.598735 0.499712
46 1 0.960953 0.653062 0.589088
47 3 0.970844 0.626832 0.662176
48 4 0.986327 0.696226 0.574368
49 1 0.917639 0.690662 0.700448
50 3 0.893816 0.645805 0.760736
51 4 0.890649 0.734448 0.709152
52 1 0.852927 0.578725 0.715584
53 3 0.871448 0.519906 0.764864
54 4 0.828296 0.55018 0.68176
55 1 0.958496 0.518524 0.74384
56 3 0.950448 0.452896 0.696224
57 5 0.925655 0.497307 0.724563
58 1 0.935708 0.391554 0.765632
59 3 0.876653 0.340717 0.753952
60 4 0.953486 0.369609 0.807776
61 1 0.811456 0.401299 0.765216
62 3 0.806704 0.408764 0.688832
63 4 0.786372 0.439902 0.78608
64 1 0.733135 0.355198 0.681664
65 3 0.693894 0.423936 0.698432
66 4 0.698937 0.318081 0.689152
67 1 0.685587 0.450339 0.612128
68 3 0.662928 0.401058 0.554336
69 4 0.71484 0.483619 0.58656
70 1 0.573682 0.428981 0.561344
71 3 0.550861 0.508363 0.55808
72 4 0.533665 0.413464 0.587936
73 1 0.545916 0.514688 0.470848
74 3 0.498335 0.466892 0.429088
75 4 0.579242 0.52668 0.436128
76 1 0.429874 0.526265 0.43296
77 3 0.431328 0.602813 0.402528
78 4 0.39296 0.536667 0.463296
79 1 0.427611 0.573265 0.318784
80 3 0.361121 0.540987 0.296864
81 4 0.451692 0.552495 0.280608
82 1 0.313153 0.619505 0.301728
83 3 0.329638 0.685893 0.25808
84 4 0.289879 0.626417 0.3448
85 1 0.243721 0.696364 0.23024
86 3 0.177263 0.677564 0.26656
87 4 0.235285 0.676873 0.186144
88 1 0.14856 0.770632 0.266624
89 3 0.0738921 0.745749 0.263744
90 4 0.149594 0.824924 0.266016
91 1 0.0770921 0.726016 0.1776
92 3 0.0324854 0.657797 0.167968
93 4 0.0876297 0.73749 0.130656
94 1 0.0919611 0.59915 0.202656
95 3 0.082167 0.590648 0.2784
96 4 0.137635 0.583218 0.200384
97 1 0.00129295 0.547277 0.270176
98 3 0.0205579 0.526887 0.341504
99 5 0.0296408 0.525809 0.268553
100 1 0.0669748 0.447539 0.323104
101 3 0.106184 0.45967 0.387264
102 4 0.0880822 0.411529 0.295392
103 1 0.149853 0.539121 0.358816
104 3 0.144261 0.562172 0.431776
105 4 0.171284 0.575028 0.329824
106 1 0.0634839 0.604472 0.423136
107 3 0.0488412 0.579659 0.495008
108 4 0.0252771 0.629631 0.402432
109 1 0.0188447 0.491775 0.466848
110 3 0.040534 0.467929 0.53776
111 4 0.00746679 0.452758 0.435488
112 1 0.126741 0.454106 0.516864
113 3 0.176164 0.481753 0.570624
114 4 0.159421 0.423901 0.491072
115 1 0.16776 0.572747 0.557376
116 3 0.196528 0.576237 0.628672
117 4 0.154766 0.620196 0.539424
118 1 0.120568 0.564453 0.67344
119 3 0.167049 0.52782 0.721632
120 4 0.0723082 0.56193 0.68144
121 1 0.163332 0.440593 0.685184
122 3 0.235576 0.436964 0.71232
123 4 0.148495 0.3985 0.658816
124 1 0.275689 0.481373 0.645216
125 3 0.322268 0.505979 0.701792
126 4 0.285386 0.504562 0.603136
127 1 0.273459 0.578967 0.727072
128 3 0.294728 0.558785 0.79712
129 4 0.244852 0.623445 0.72432
130 1 0.236545 0.491844 0.815072
131 3 0.292659 0.458391 0.857152
132 4 0.196431 0.460879 0.815936
133 1 0.334809 0.414777 0.788416
134 3 0.398552 0.425387 0.829216
135 4 0.344991 0.395079 0.744256
136 1 0.408572 0.517383 0.808768
137 3 0.440153 0.538464 0.87584
138 4 0.409671 0.563969 0.784576
139 1 0.365161 0.532105 0.922528
140 3 0.386495 0.486764 0.981632
141 4 0.32133 0.549558 0.933696
142 1 0.368879 0.40282 0.9456
143 3 0.432492 0.366706 0.976736
144 4 0.340757 0.369436 0.920704
145 1 0.483951 0.382776 0.90544
146 3 0.519669 0.450892 0.876352
147 4 0.491968 0.358101 0.862656
148 1 0.556292 0.4765 0.950912
149 3 0.627566 0.499447 0.931296
150 4 0.553771 0.490047 0.99872
151 1 0.657918 0.411874 0.914208
152 3 0.693539 0.389031 0.84752
153 4 0.669328 0.365531 0.935712
154 1 0.629247 0.423659 0.793888
155 3 0.594757 0.497926 0.801536
156 4 0.592979 0.38834 0.779296
157 1 0.630572 0.537393 0.72816
158 3 0.601642 0.50273 0.663648
159 4 0.674758 0.557126 0.711296
160 1 0.530271 0.561204 0.659168
161 3 0.527265 0.642763 0.653536
162 4 0.486246 0.556435 0.681792
163 1 0.539839 0.640793 0.56144
164 3 0.485826 0.601569 0.521088
165 4 0.58089 0.635195 0.535136
166 1 0.452856 0.684061 0.483936
167 3 0.487119 0.753076 0.455712
168 4 0.409833 0.704313 0.500064
169 1 0.482077 0.723182 0.370816
170 3 0.425348 0.689833 0.328448
171 4 0.517794 0.697643 0.34688
172 1 0.390697 0.771807 0.304032
173 3 0.438569 0.803705 0.251424
174 4 0.368523 0.816906 0.314016
175 1 0.422407 0.738354 0.189312
176 3 0.442738 0.791955 0.13488
177 4 0.409089 0.693289 0.164288
178 1 0.373598 0.850636 0.147168
179 3 0.421534 0.913361 0.136832
180 4 0.32731 0.868088 0.15392
181 1 0.447038 0.927703 0.218112
182 3 0.520251 0.94322 0.198784
183 4 0.445486 0.937068 0.265504
184 1 0.5475 0.854887 0.20672
185 3 0.566248 0.784697 0.17152
186 4 0.564922 0.829486 0.24544
187 1 0.541843 0.813761 0.09152
188 3 0.590135 0.753836 0.069184
189 4 0.52872 0.842722 0.05376
190 1 0.664997 0.801804 0.08944
191 3 0.695187 0.728746 0.1056
192 4 0.696965 0.841616 0.09696
193 1 0.666225 0.723631 0.191168
194 3 0.656528 0.642763 0.173696
195 4 0.652455 0.738285 0.237664
196 1 0.57171 0.655032 0.142304
197 3 0.595695 0.588402 0.104032
198 4 0.528752 0.677703 0.128096
199 1 0.632156 0.635506 0.033696
200 3 0.677991 0.570431 0.031616
201 4 0.650806 0.669581 0.00128
202 1 0.73905 0.604748 0.086176
203 3 0.755956 0.528442 0.10752
204 4 0.768206 0.63796 0.11008
205 1 0.68633 0.518766 0.161376
206 3 0.646087 0.447194 0.151328
207 4 0.663187 0.532658 0.203808
208 1 0.628503 0.466098 0.063264
209 3 0.571775 0.410561 0.075008
210 4 0.656011 0.42397 0.05168
211 1 0.516631 0.475256 0.11248
212 3 0.492485 0.50311 0.0432
213 4 0.502537 0.514722 0.143808
214 1 0.427191 0.436515 0.03792
215 3 0.3522 0.436066 0.025792
216 4 0.442932 0.397636 0.00784
217 1 0.328959 0.40441 0.10704
218 3 0.357016 0.446745 0.166272
219 4 0.323076 0.352606 0.116864
220 1 0.276885 0.471074 0.201376
221 3 0.21741 0.419754 0.211296
222 4 0.249636 0.515206 0.195904
223 1 0.293241 0.450511 0.293728
224 3 0.319779 0.373929 0.274688
225 4 0.279439 0.453138 0.340384
226 1 0.40479 0.396046 0.28624
227 3 0.433397 0.443772 0.342432
228 4 0.435627 0.40555 0.248064
229 1 0.465494 0.373099 0.39088
230 3 0.5144 0.317459 0.36528
231 4 0.444904 0.344484 0.426016
232 1 0.58784 0.366291 0.383808
233 3 0.598248 0.396669 0.455168
234 4 0.61483 0.396599 0.354624
235 1 0.654847 0.325131 0.478848
236 3 0.72208 0.310686 0.444096
237 4 0.643566 0.276334 0.494464
238 1 0.771309 0.364771 0.497216
239 3 0.773249 0.363457 0.573984
240 4 0.780813 0.415849 0.485152
241 1 0.85645 0.332665 0.57712
242 3 0.917284 0.329313 0.531264
243 4 0.855578 0.282624 0.590112
244 1 0.964541 0.396288 0.577152
245 3 0.998707 0.395079 0.50688
246 4 0.997382 0.35893 0.589312
247 1 0.937971 0.455764 0.472928
248 3 0.92433 0.436964 0.400928
249 5 0.938617 0.474185 0.428096
250 1 0.917219 0.341616 0.413152
251 3 0.850503 0.32247 0.447072
252 4 0.94547 0.299489 0.42288
253 1 0.802696 0.307783 0.373536
254 3 0.821735 0.229057 0.360224
255 4 0.783495 0.317217 0.329024
256 1 0.776384 0.193254 0.42864
257 3 0.725927 0.132396 0.436064
258 4 0.789411 0.1861 0.476224
259 1 0.656334 0.17715 0.39936
260 3 0.637004 0.253456 0.375296
261 5 0.69968 0.133748 0.385606
262 1 0.565439 0.226327 0.331328
263 3 0.531306 0.158764 0.307872
264 4 0.586935 0.241222 0.289728
265 1 0.450011 0.200546 0.30384
266 3 0.424573 0.277613 0.310688
267 4 0.428031 0.164536 0.333696
268 1 0.352846 0.266899 0.258592
269 3 0.30268 0.207389 0.278304
270 4 0.351553 0.278477 0.210272
271 1 0.235576 0.27001 0.294848
272 3 0.254711 0.279168 0.369856
273 5 0.27931 0.242897 0.263814
274 1 0.172738 0.30685 0.39232
275 3 0.12422 0.255184 0.42896
276 4 0.133529 0.339024 0.38992
277 1 0.185862 0.193427 0.45328
278 3 0.243559 0.202792 0.504672
279 4 0.208811 0.153649 0.431136
280 1 0.186961 0.216512 0.574784
281 3 0.246016 0.186999 0.619328
282 4 0.145619 0.225014 0.600896
283 1 0.219478 0.0964197 0.609248
284 3 0.294922 0.0819394 0.61568
285 4 0.191033 0.0550525 0.598944
286 1 0.311569 0.0867432 0.532192
287 3 0.379481 0.119436 0.547136
288 4 0.306009 0.0816284 0.484256
289 1 0.35304 0.209497 0.562944
290 3 0.413809 0.198127 0.611552
291 4 0.327634 0.25356 0.568928
292 1 0.361089 0.179189 0.680512
293 3 0.420694 0.134469 0.70544
294 4 0.32133 0.174074 0.708544
295 1 0.401073 0.0562275 0.656416
296 3 0.477874 0.0400193 0.654624
297 4 0.37696 0.0205626 0.629984
298 1 0.494489 0.0993572 0.586592
299 3 0.561625 0.119505 0.622048
300 4 0.487798 0.125726 0.543968
301 1 0.525261 0.189107 0.67376
302 3 0.579856 0.155585 0.718176
303 4 0.493422 0.225048 0.693152
304 1 0.532114 0.0893351 0.756224
305 3 0.590264 0.0340406 0.763296
306 4 0.493584 0.0628629 0.775616
307 1 0.603258 0.017556 0.68016
308 3 0.681159 0.0237075 0.681696
309 4 0.589844 0.00138236 0.635168
310 1 0.681482 0.115773 0.658048
311 3 0.737273 0.158177 0.690272
312 4 0.671526 0.148707 0.619936
313 1 0.69189 0.179327 0.763424
314 3 0.736788 0.11674 0.787552
315 4 0.65239 0.187967 0.79248
ITEM: TIMESTEP
1000
ITEM: NUMBER OF ATOMS
315
ITEM: BOX BOUNDS ss ss ss
24.938 55.875
-3.683 25.253
-1.838 29.412
ITEM: ATOMS id type xs ys zs
1 1 0.451993 0.703108 0.814955
2 3 0.497493 0.681798 0.7554
3 4 0.45597 0.752671 0.830017
4 1 0.453845 0.709545 0.695708
5 3 0.470501 0.789404 0.684661
6 4 0.409063 0.705263 0.672213
7 1 0.532535 0.78212 0.634434
8 3 0.511744 0.765344 0.563139
9 4 0.580309 0.765744 0.638186
10 1 0.497487 0.844483 0.535537
11 3 0.555227 0.884355 0.507438
12 4 0.464951 0.882881 0.53901
13 1 0.585528 0.837384 0.45048
14 3 0.548886 0.856264 0.388291
15 4 0.604764 0.791953 0.437273
16 1 0.588072 0.926962 0.363958
17 3 0.624889 0.956816 0.303189
18 4 0.572512 0.973873 0.380046
19 1 0.699802 0.92422 0.314251
20 3 0.731799 0.85217 0.338088
21 4 0.727864 0.966096 0.328192
22 1 0.781734 0.836601 0.277469
23 3 0.833599 0.814064 0.332426
24 4 0.802165 0.8334 0.234562
25 1 0.861559 0.891988 0.354254
26 3 0.863476 0.865638 0.428642
27 4 0.872852 0.942693 0.348428
28 1 0.783246 0.873298 0.447642
29 3 0.7701 0.799241 0.480523
30 4 0.739288 0.898172 0.446802
31 1 0.763562 0.749451 0.417149
32 3 0.810918 0.69313 0.447166
33 4 0.74458 0.732564 0.374513
34 1 0.882318 0.718895 0.41416
35 3 0.916099 0.705299 0.484364
36 4 0.913074 0.742023 0.383807
37 1 0.904061 0.782709 0.518559
38 3 0.890379 0.743174 0.584965
39 4 0.895741 0.83535 0.52458
40 1 0.812269 0.721286 0.57481
41 3 0.826698 0.644784 0.607276
42 4 0.766341 0.722134 0.560174
43 1 0.854552 0.604889 0.540931
44 3 0.916659 0.568674 0.574317
45 4 0.855595 0.585727 0.494018
46 1 0.967127 0.635417 0.580563
47 3 0.987981 0.628079 0.654058
48 4 0.994575 0.673182 0.558888
49 1 0.930063 0.675993 0.686842
50 3 0.907615 0.630892 0.747971
51 4 0.906679 0.723732 0.690368
52 1 0.860344 0.573255 0.711671
53 3 0.882699 0.51034 0.759523
54 4 0.831974 0.544726 0.678024
55 1 0.962354 0.51066 0.740042
56 3 0.944469 0.437858 0.708008
57 5 0.916744 0.532538 0.735576
58 1 0.929317 0.388474 0.768369
59 3 0.863372 0.340497 0.775666
60 4 0.951225 0.363733 0.807176
61 1 0.80775 0.400819 0.770188
62 3 0.797364 0.402206 0.69287
63 4 0.784678 0.441871 0.789816
64 1 0.729854 0.356223 0.682105
65 3 0.680973 0.418747 0.693346
66 4 0.696999 0.314444 0.690369
67 1 0.679883 0.453257 0.618816
68 3 0.648889 0.422331 0.553059
69 4 0.708382 0.489836 0.596831
70 1 0.571179 0.436454 0.566102
71 3 0.555834 0.51663 0.555442
72 4 0.530305 0.422493 0.592894
73 1 0.543227 0.523495 0.477563
74 3 0.491176 0.480872 0.433263
75 4 0.574903 0.52629 0.439822
76 1 0.428126 0.529026 0.434116
77 3 0.418389 0.604548 0.404758
78 4 0.392206 0.534831 0.467701
79 1 0.421956 0.587736 0.325955
80 3 0.351945 0.564049 0.305303
81 4 0.448672 0.568366 0.28712
82 1 0.311402 0.635258 0.311291
83 3 0.312571 0.708818 0.279149
84 4 0.288601 0.643954 0.355227
85 1 0.241856 0.707254 0.240357
86 3 0.176643 0.70186 0.283625
87 4 0.233887 0.688855 0.194388
88 1 0.144357 0.780031 0.276665
89 3 0.071936 0.754313 0.263727
90 4 0.146495 0.83081 0.278549
91 1 0.0755754 0.74124 0.182524
92 3 0.0362131 0.669631 0.175587
93 4 0.0882361 0.751303 0.134145
94 1 0.0856977 0.610802 0.203818
95 3 0.0576889 0.614422 0.273775
96 4 0.129958 0.589428 0.206416
97 1 0.00025103 0.553761 0.270809
98 3 0.0212332 0.520677 0.338985
99 5 -0.000192388 0.592953 0.303996
100 1 0.0676422 0.456801 0.315363
101 3 0.119262 0.464942 0.371008
102 4 0.0897247 0.417767 0.288689
103 1 0.145187 0.546511 0.360624
104 3 0.133041 0.574052 0.432017
105 4 0.166401 0.579611 0.332403
106 1 0.058412 0.599783 0.425444
107 3 0.03608 0.564781 0.490829
108 4 0.0206904 0.627754 0.403977
109 1 0.0198989 0.485998 0.463111
110 3 0.043592 0.443687 0.523854
111 4 0.00525658 0.452041 0.429717
112 1 0.122643 0.451345 0.517246
113 3 0.180177 0.485172 0.558306
114 4 0.155767 0.426524 0.488374
115 1 0.154246 0.568124 0.56154
116 3 0.180874 0.570939 0.633341
117 4 0.140332 0.614583 0.544493
118 1 0.11076 0.549403 0.675889
119 3 0.147736 0.50171 0.725351
120 4 0.0616124 0.544631 0.682014
121 1 0.160795 0.430293 0.680986
122 3 0.23521 0.417544 0.695708
123 4 0.144882 0.392461 0.65415
124 1 0.269437 0.476347 0.646376
125 3 0.316484 0.510833 0.698709
126 4 0.280479 0.495771 0.603639
127 1 0.262419 0.56713 0.732654
128 3 0.275109 0.551654 0.805209
129 4 0.23459 0.610861 0.73013
130 1 0.23166 0.477739 0.812833
131 3 0.284048 0.428687 0.849277
132 4 0.190025 0.451493 0.813935
133 1 0.331462 0.40817 0.786359
134 3 0.40219 0.421717 0.815617
135 4 0.341084 0.388905 0.742481
136 1 0.401526 0.510094 0.81168
137 3 0.427941 0.524279 0.883531
138 4 0.400569 0.557726 0.789215
139 1 0.357579 0.518619 0.925956
140 3 0.375893 0.465171 0.978904
141 4 0.311895 0.540565 0.935476
142 1 0.363795 0.390285 0.942469
143 3 0.431316 0.358569 0.96592
144 4 0.337715 0.356834 0.917287
145 1 0.478514 0.375022 0.904631
146 3 0.514955 0.4464 0.885489
147 4 0.483016 0.349774 0.862243
148 1 0.549142 0.465944 0.952796
149 3 0.621074 0.487859 0.93535
150 4 0.545688 0.480401 0.999669
151 1 0.654254 0.410947 0.916545
152 3 0.679356 0.395457 0.845917
153 4 0.667188 0.361673 0.934617
154 1 0.625273 0.428346 0.79743
155 3 0.594465 0.503328 0.799585
156 4 0.590071 0.394053 0.782987
157 1 0.623933 0.541821 0.731761
158 3 0.593579 0.502081 0.668349
159 4 0.664397 0.561137 0.715235
160 1 0.528116 0.555588 0.65789
161 3 0.531042 0.636846 0.649701
162 4 0.48608 0.5438 0.678546
163 1 0.530447 0.642042 0.566166
164 3 0.482923 0.607244 0.514921
165 4 0.575886 0.649696 0.546737
166 1 0.450612 0.681728 0.483957
167 3 0.470341 0.7548 0.452336
168 4 0.406322 0.698711 0.50329
169 1 0.476178 0.727487 0.374647
170 3 0.432124 0.703288 0.316765
171 4 0.516597 0.70571 0.353015
172 1 0.384918 0.772937 0.30669
173 3 0.427115 0.803744 0.245758
174 4 0.360704 0.814542 0.317751
175 1 0.416417 0.742609 0.192726
176 3 0.430966 0.800924 0.140411
177 4 0.398413 0.70437 0.167727
178 1 0.366652 0.850682 0.149082
179 3 0.409581 0.919282 0.146981
180 4 0.320389 0.861474 0.157987
181 1 0.433428 0.926666 0.222297
182 3 0.508393 0.941216 0.205173
183 4 0.425781 0.932946 0.2693
184 1 0.538917 0.861811 0.213559
185 3 0.538942 0.790812 0.172463
186 4 0.558186 0.835508 0.252128
187 1 0.538504 0.819379 0.0991291
188 3 0.593567 0.773383 0.0660781
189 4 0.520198 0.849756 0.0616388
190 1 0.659824 0.810348 0.0992864
191 3 0.687186 0.739761 0.12209
192 4 0.689453 0.854221 0.103618
193 1 0.662746 0.734117 0.196352
194 3 0.640014 0.656183 0.19281
195 4 0.649482 0.748183 0.244416
196 1 0.574927 0.662726 0.144953
197 3 0.594967 0.599413 0.0971873
198 4 0.53055 0.686564 0.133497
199 1 0.636349 0.643741 0.0421736
200 3 0.691514 0.58613 0.0384783
201 4 0.648726 0.68503 0.011411
202 1 0.742591 0.618077 0.0952269
203 3 0.755499 0.543586 0.121523
204 4 0.769702 0.653756 0.123253
205 1 0.690492 0.527846 0.164378
206 3 0.654534 0.458892 0.147252
207 4 0.666637 0.541859 0.206645
208 1 0.629689 0.47414 0.0698625
209 3 0.563257 0.426628 0.0802472
210 4 0.65892 0.433876 0.0568261
211 1 0.519395 0.486362 0.118931
212 3 0.475694 0.511532 0.0568987
213 4 0.506954 0.522546 0.149479
214 1 0.436968 0.439219 0.0399796
215 3 0.362244 0.461516 0.0440675
216 4 0.448889 0.399434 0.0129622
217 1 0.338476 0.405538 0.0965257
218 3 0.361382 0.447412 0.164575
219 4 0.331621 0.353169 0.105773
220 1 0.290181 0.475684 0.188302
221 3 0.272311 0.405943 0.221839
222 4 0.254062 0.508381 0.17824
223 1 0.29687 0.431898 0.297795
224 3 0.338721 0.361687 0.311999
225 4 0.253634 0.406894 0.304745
226 1 0.411858 0.388917 0.282159
227 3 0.449217 0.436542 0.335068
228 4 0.441069 0.405318 0.247299
229 1 0.466364 0.379623 0.390548
230 3 0.52694 0.325693 0.376118
231 4 0.447024 0.350249 0.424994
232 1 0.589562 0.371231 0.388918
233 3 0.596395 0.392555 0.462702
234 4 0.616464 0.406722 0.362327
235 1 0.656191 0.339116 0.484969
236 3 0.729319 0.324036 0.456612
237 4 0.642736 0.291758 0.502072
238 1 0.769117 0.38279 0.504273
239 3 0.77588 0.380018 0.581518
240 4 0.778936 0.4306 0.487478
241 1 0.854035 0.354438 0.585022
242 3 0.923156 0.347596 0.550889
243 4 0.850131 0.303798 0.601688
244 1 0.958207 0.413994 0.586861
245 3 1.00063 0.437106 0.527219
246 4 0.992123 0.378552 0.601845
247 1 0.938039 0.464808 0.480014
248 3 0.947149 0.435545 0.408569
249 5 0.901372 0.449855 0.450789
250 1 0.918343 0.354349 0.422814
251 3 0.846873 0.320973 0.448185
252 4 0.947034 0.3145 0.437711
253 1 0.806939 0.320974 0.380432
254 3 0.819579 0.238879 0.369525
255 4 0.78839 0.330142 0.335216
256 1 0.781988 0.207333 0.435919
257 3 0.739291 0.144602 0.418931
258 4 0.793768 0.200991 0.482656
259 1 0.667329 0.183732 0.407585
260 3 0.63859 0.253775 0.378079
261 5 0.705785 0.198948 0.434808
262 1 0.576865 0.223132 0.336307
263 3 0.536938 0.16042 0.30566
264 4 0.600074 0.243428 0.298266
265 1 0.46278 0.192491 0.300728
266 3 0.426368 0.267447 0.302096
267 4 0.442468 0.158009 0.331044
268 1 0.362467 0.249004 0.253393
269 3 0.303841 0.193525 0.255331
270 4 0.365669 0.249782 0.202389
271 1 0.245688 0.247395 0.280114
272 3 0.254925 0.260313 0.358539
273 5 0.2198 0.216182 0.251944
274 1 0.178602 0.27629 0.376385
275 3 0.139353 0.202491 0.390802
276 4 0.133808 0.302443 0.372736
277 1 0.194177 0.172494 0.443372
278 3 0.241697 0.188451 0.502559
279 4 0.221288 0.135333 0.42089
280 1 0.188425 0.195656 0.564057
281 3 0.239439 0.161583 0.61134
282 4 0.145829 0.205373 0.585993
283 1 0.225578 0.079869 0.602689
284 3 0.299867 0.058506 0.605122
285 4 0.200442 0.0333405 0.59311
286 1 0.321945 0.0707333 0.529021
287 3 0.38984 0.111788 0.539359
288 4 0.320029 0.0642652 0.480765
289 1 0.355785 0.190969 0.557158
290 3 0.406978 0.200531 0.61612
291 4 0.323959 0.232774 0.557804
292 1 0.358525 0.170965 0.67747
293 3 0.413411 0.120645 0.710784
294 4 0.317647 0.163989 0.703692
295 1 0.410615 0.0539616 0.661997
296 3 0.48943 0.0461404 0.654436
297 4 0.386757 0.0154219 0.635458
298 1 0.499916 0.0996469 0.592898
299 3 0.5607 0.139577 0.627257
300 4 0.495121 0.118053 0.548833
301 1 0.520662 0.190207 0.676929
302 3 0.561888 0.175142 0.740315
303 4 0.489479 0.226587 0.690563
304 1 0.537828 0.0971446 0.76033
305 3 0.599543 0.0482238 0.765536
306 4 0.501024 0.0668875 0.772568
307 1 0.611677 0.0284195 0.688595
308 3 0.687985 0.044884 0.689224
309 4 0.598688 0.00957214 0.645979
310 1 0.685759 0.128073 0.666104
311 3 0.724887 0.18017 0.709266
312 4 0.676322 0.158141 0.629733
313 1 0.68755 0.175683 0.779005
314 3 0.678657 0.21475 0.845132
315 4 0.651154 0.205277 0.796017
