LAMMPS protain data file

         387  atoms
         514  bonds
           0  angles
           0  dihedrals
           0  impropers

           5  atom types
           5  bond types
           0  angle types
           0  dihedral types
           0  improper types

-200.0	200.0	xlo xhi
-200.0	200.0	ylo yhi
-200.0	200.0	zlo zhi

Masses

           1	27.0
           2	14.0
           3	28.0
           4	60.0
           5	60.0

Atoms

           1	1	1	1	0.0	2.30500007	-1.00300002	-7.90999985
           2	1	1	3	0.0	0.94199997	-2.81599998	-7.18599987
           3	1	1	4	0.0	2.6730001	-0.053	-6.76999998
           4	1	2	1	0.0	2.98200011	-4.45100021	-6.48099995
           5	1	2	3	0.0	5.03700018	-4.16900015	-5.23000002
           6	1	2	4	0.0	3.02399993	-5.58699989	-7.52299976
           7	1	3	1	0.0	4.14699984	-5.80900002	-3.13100004
           8	1	3	3	0.0	4.53000021	-8.06599998	-3.83699989
           9	1	3	4	0.0	3.16199994	-6.0250001	-2.00200009
          10	1	4	1	0.0	7.22700024	-8.09500027	-2.99699998
          11	1	4	3	0.0	7.81799984	-7.71999979	-0.73100001
          12	1	4	4	0.0	8.43000031	-7.64599991	-3.83299994
          13	1	5	1	0.0	8.52600002	-10.26799965	-0.17399999
          14	1	5	3	0.0	10.74300003	-9.45899963	-0.565
          15	1	5	4	0.0	8.51000023	-11.79899979	-0.28099999
          16	1	6	1	0.0	11.43200016	-9.33100033	2.12599993
          17	1	6	3	0.0	10.36800003	-10.04300022	4.12900019
          18	1	6	4	0.0	11.72500038	-7.84399986	1.98800004
          19	1	7	1	0.0	12.70499992	-10.17300034	5.59600019
          20	1	7	3	0.0	14.44400024	-8.50699997	5.75899982
          21	1	7	4	0.0	13.41300011	-11.53899956	5.6869998
          22	1	8	1	0.0	13.93599987	-7.8920002	8.40299988
          23	1	8	3	0.0	15.5010004	-9.61600018	9.15400028
          24	1	8	4	0.0	13.2159996	-7.58500004	9.72599983
          25	1	9	1	0.0	17.73699951	-7.89499998	9.01299953
          26	1	9	3	0.0	18.04700089	-7.62799978	11.37199974
          27	1	9	4	0.0	18.81900024	-7.53000021	7.96600008
          28	1	10	1	0.0	17.89699936	-4.87099981	11.31999969
          29	1	10	3	0.0	17.21100044	-2.96499991	10.07600021
          30	1	10	4	0.0	19.38999939	-4.54199982	11.40699959
          31	1	11	1	0.0	15.9090004	-1.77600002	12.29599953
          32	1	11	3	0.0	18.13400078	-1.16499996	12.89599991
          33	1	11	4	0.0	15.11200047	-1.64400005	13.64400005
          34	1	12	1	0.0	18.08200073	1.32599998	11.64900017
          35	1	12	3	0.0	18.00399971	2.93199992	13.46100044
          36	1	12	4	0.0	18.68499947	1.61600006	10.23600006
          37	1	13	1	0.0	16.19099998	4.58400011	12.25500011
          38	1	13	3	0.0	14.1239996	3.91599989	11.2670002
          39	1	13	4	0.0	17.12899971	5.8119998	12.1590004
          40	1	14	1	0.0	12.79599953	6.24599981	11.63399982
          41	1	14	3	0.0	11.36999989	5.41900015	9.88099957
          42	1	14	5	0.0	14.21199989	6.25103199	11.45701154
          43	1	15	1	0.0	12.99400043	6.03599977	7.84700012
          44	1	15	3	0.0	13.9090004	5.2420001	5.74399996
          45	1	15	4	0.0	12.77000046	7.41900015	7.23999977
          46	1	16	1	0.0	15.74199963	3.46199989	6.97900009
          47	1	16	3	0.0	15.67700005	2.1500001	9.0
          48	1	16	4	0.0	17.19499969	4.02699995	6.82299995
          49	1	17	1	0.0	15.69999981	-0.27000001	7.65100002
          50	1	17	3	0.0	16.54899979	-1.04900002	5.52299976
          51	1	17	4	0.0	14.26599979	-0.72600001	7.84200001
          52	1	18	1	0.0	17.92300034	-3.13100004	6.58699989
          53	1	18	3	0.0	16.65399933	-5.00699997	7.34499979
          54	1	18	4	0.0	19.22299957	-3.42499995	7.36199999
          55	1	19	1	0.0	16.00200081	-5.88100004	4.76900005
          56	1	19	3	0.0	17.69499969	-6.38700008	3.15700006
          57	1	19	4	0.0	14.72000027	-5.47900009	4.0079999
          58	1	20	1	0.0	16.87899971	-9.01000023	2.81699991
          59	1	20	3	0.0	14.72000027	-9.3760004	1.87300003
          60	1	20	4	0.0	17.04500008	-10.45199966	3.31200004
          61	1	21	1	0.0	15.36400032	-8.5170002	-0.63200003
          62	1	21	3	0.0	17.11800003	-9.06299973	-2.16899991
          63	1	21	4	0.0	15.08199978	-7.04899979	-1.02900004
          64	1	22	1	0.0	15.6239996	-11.12899971	-3.42799997
          65	1	22	3	0.0	17.86499977	-11.99499989	-3.73200011
          66	1	22	4	0.0	15.78600025	-10.48499966	-4.82200003
          67	1	23	1	0.0	18.18700027	-12.76799965	-1.12600005
          68	1	23	3	0.0	20.42200089	-12.54800034	-0.35699999
          69	1	23	5	0.0	17.02300072	-13.11339366	-0.73322665
          70	1	24	1	0.0	20.5	-9.72000027	-0.79799998
          71	1	24	3	0.0	19.11100006	-8.1590004	0.34200001
          72	1	24	4	0.0	20.90600014	-8.94099998	-2.07800007
          73	1	25	1	0.0	20.99399948	-7.45599985	2.22000003
          74	1	25	3	0.0	21.71199989	-5.88000011	0.56900001
          75	1	25	4	0.0	22.21800041	-7.625	3.12199998
          76	1	26	1	0.0	19.98200035	-3.91199994	1.34500003
          77	1	26	3	0.0	18.53700066	-3.37599993	3.1559999
          78	1	26	4	0.0	18.98800087	-4.03399992	0.199
          79	1	27	1	0.0	19.2840004	-0.713	3.2650001
          80	1	27	3	0.0	18.44400024	0.27900001	1.26400006
          81	1	27	4	0.0	20.31200027	0.34299999	3.62899995
          82	1	28	1	0.0	15.87699986	0.71499997	2.3499999
          83	1	28	3	0.0	15.56700039	2.16799998	4.1960001
          84	1	28	4	0.0	14.63099957	-0.142	2.43799996
          85	1	29	1	0.0	14.99600029	4.41499996	2.51300001
          86	1	29	3	0.0	13.11800003	4.30499983	0.99900001
          87	1	29	4	0.0	15.84599972	5.47700024	1.77900004
          88	1	30	1	0.0	11.31499958	4.99300003	2.91400003
          89	1	30	3	0.0	11.27299976	7.28700018	2.26300001
          90	1	30	4	0.0	10.6079998	5.18100023	4.27699995
          91	1	31	1	0.0	9.69999981	6.82499981	0.051
          92	1	31	3	0.0	7.9369998	7.51499987	1.49699998
          93	1	31	4	0.0	8.96100044	6.18100023	-1.12699997
          94	1	32	1	0.0	7.97200012	10.17099953	0.461
          95	1	32	3	0.0	6.9369998	11.43700027	2.16300011
          96	1	32	4	0.0	6.55299997	9.76599979	-0.036
          97	1	33	1	0.0	8.75800037	10.76099968	4.17799997
          98	1	33	3	0.0	11.17000008	10.8920002	4.11000013
          99	1	33	4	0.0	8.2840004	9.60200024	5.10300016
         100	1	34	1	0.0	11.37800026	12.30099964	6.46199989
         101	1	34	3	0.0	10.30300045	13.05300045	8.44799995
         102	1	34	4	0.0	11.82400036	13.68700027	6.01499987
         103	1	35	1	0.0	11.82499981	11.36600018	10.06499958
         104	1	35	3	0.0	13.98099995	12.375	9.82299995
         105	1	35	4	0.0	11.95199966	9.90299988	10.57199955
         106	1	36	1	0.0	14.04599953	13.46800041	12.37300014
         107	1	36	3	0.0	14.91699982	11.28100014	12.68400002
         108	1	36	4	0.0	13.54899979	13.81299973	13.77999973
         109	1	37	1	0.0	17.53000069	12.1260004	12.76599979
         110	1	37	3	0.0	16.85300064	12.44099998	14.96700001
         111	1	37	4	0.0	18.84799957	12.78999996	12.35900021
         112	1	38	1	0.0	18.03800011	10.22799969	16.03899956
         113	1	38	3	0.0	18.01799965	11.41300011	18.0909996
         114	1	38	4	0.0	18.84399986	8.93599987	16.22599983
         115	1	39	1	0.0	19.9829998	13.24600029	17.45299911
         116	1	39	3	0.0	19.32799911	15.42099953	18.3239994
         117	1	39	4	0.0	21.41300011	13.63799953	17.04999924
         118	1	40	1	0.0	17.02000046	15.59000015	16.73399925
         119	1	40	3	0.0	15.59399986	14.04500008	17.90500069
         120	1	40	4	0.0	16.61199951	15.97099972	15.30500031
         121	1	41	1	0.0	13.7159996	15.97099972	18.63699913
         122	1	41	3	0.0	12.52999973	15.30599976	16.68899918
         123	1	41	4	0.0	13.08100033	17.32099915	18.9640007
         124	1	42	1	0.0	11.26500034	13.06799984	17.92700005
         125	1	42	3	0.0	11.36699963	11.02700043	16.64599991
         126	1	42	4	0.0	10.03999996	13.61800003	17.15999985
         127	1	43	1	0.0	14.18900013	11.1590004	16.31100082
         128	1	43	3	0.0	13.93099976	8.78899956	16.45899963
         129	1	43	5	0.0	13.31900024	10.30316919	14.22795976
         130	1	44	1	0.0	14.28800011	8.61499977	19.14500046
         131	1	44	3	0.0	12.79399967	6.76599979	18.99699974
         132	1	44	4	0.0	14.51599979	9.09000015	20.59900093
         133	1	45	1	0.0	10.46100044	8.32299995	18.92099953
         134	1	45	3	0.0	9.50599957	6.59600019	17.49600029
         135	1	45	4	0.0	9.45699978	9.46399975	19.17399979
         136	1	46	1	0.0	10.53199959	7.76300001	15.16300011
         137	1	46	3	0.0	10.68700027	5.48099995	14.44400024
         138	1	46	4	0.0	11.00199986	8.80900002	14.15299988
         139	1	47	1	0.0	13.26900005	5.08900023	15.42800045
         140	1	47	3	0.0	12.36100006	2.9000001	15.6590004
         141	1	47	4	0.0	14.6960001	5.2329998	15.99100018
         142	1	48	1	0.0	11.3039999	3.31299996	18.19000053
         143	1	48	3	0.0	9.6789999	1.60300004	17.5170002
         144	1	48	4	0.0	10.95199966	3.91700006	19.57999992
         145	1	49	1	0.0	8.09700012	3.43499994	16.19099998
         146	1	49	3	0.0	7.69000006	1.39999998	14.91699982
         147	1	49	4	0.0	7.43499994	4.72599983	15.71899986
         148	1	50	1	0.0	9.55700016	1.98099995	12.95600033
         149	1	50	3	0.0	9.83199978	-0.42199999	12.8739996
         150	1	50	4	0.0	10.53100014	2.73099995	12.06099987
         151	1	51	1	0.0	11.63700008	-0.537	15.0010004
         152	1	51	3	0.0	10.69699955	-2.7349999	15.13899994
         153	1	51	4	0.0	12.53199959	-0.19	16.21299934
         154	1	52	1	0.0	8.54199982	-1.93599999	16.76099968
         155	1	52	3	0.0	7.46799994	-3.68199992	15.54699993
         156	1	52	4	0.0	7.64799976	-1.20700002	17.76300049
         157	1	53	1	0.0	6.57700014	-2.04900002	13.52900028
         158	1	53	3	0.0	6.60900021	-4.17399979	12.38199997
         159	1	53	4	0.0	6.23899984	-0.801	12.69699955
         160	1	54	1	0.0	9.16100025	-3.9849999	11.49699974
         161	1	54	3	0.0	9.45300007	-6.32999992	11.75800037
         162	1	54	4	0.0	10.38199997	-3.44799995	10.69799995
         163	1	55	1	0.0	10.34500027	-6.15100002	14.43000031
         164	1	55	3	0.0	9.25300026	-8.24199963	14.86699963
         165	1	55	4	0.0	11.1239996	-5.66400003	15.66800022
         166	1	56	1	0.0	6.8039999	-7.12599993	15.42500019
         167	1	56	3	0.0	5.21000004	-8.63700008	14.3920002
         168	1	56	4	0.0	5.829	-6.26900005	16.22500038
         169	1	57	1	0.0	5.73899984	-7.94999981	11.8210001
         170	1	57	3	0.0	7.23500013	-9.79300022	11.52600002
         171	1	57	4	0.0	6.06599998	-7.14300013	10.57699966
         172	1	58	1	0.0	5.36899996	-11.56400013	10.7869997
         173	1	58	3	0.0	6.4000001	-12.3920002	8.78499985
         174	1	58	4	0.0	4.31699991	-12.6079998	11.18799973
         175	1	59	1	0.0	5.42000008	-10.42599964	7.11600018
         176	1	59	3	0.0	5.05499983	-8.05200005	6.97599983
         177	1	59	4	0.0	4.14099979	-10.82699966	6.38899994
         178	1	60	1	0.0	7.47800016	-7.50199986	5.57200003
         179	1	60	3	0.0	7.76200008	-8.61600018	3.49399996
         180	1	60	4	0.0	9.00899982	-7.24300003	5.89300013
         181	1	61	1	0.0	6.81899977	-6.43200016	2.01799989
         182	1	61	3	0.0	7.23799992	-4.07999992	2.22799993
         183	1	61	4	0.0	5.34499979	-6.53700018	1.62300003
         184	1	62	1	0.0	8.58100033	-4.02099991	-0.28200001
         185	1	62	3	0.0	7.41400003	-4.61999989	-2.26200008
         186	1	62	4	0.0	10.00199986	-4.41200018	-0.73000002
         187	1	63	1	0.0	6.63399982	-2.00200009	-2.8900001
         188	1	63	3	0.0	7.40299988	0.23899999	-2.99300003
         189	1	63	4	0.0	5.23600006	-1.56299996	-2.44300008
         190	1	64	1	0.0	8.67500019	-0.034	-5.39599991
         191	1	64	3	0.0	6.54099989	0.324	-6.44099998
         192	1	64	4	0.0	9.6420002	-0.648	-6.41800022
         193	1	65	1	0.0	7.1789999	2.93899989	-7.21999979
         194	1	65	3	0.0	8.30300045	1.86199999	-9.07199955
         195	1	65	4	0.0	7.29099989	4.37599993	-6.67600012
         196	1	66	1	0.0	7.39400005	3.71000004	-10.98799992
         197	1	66	3	0.0	9.11800003	3.95099998	-12.63099957
         198	1	66	4	0.0	6.21600008	4.421	-11.6590004
         199	1	67	1	0.0	10.73099995	5.60699987	-11.02400017
         200	1	67	3	0.0	11.85200024	3.58400011	-10.48499966
         201	1	67	5	0.0	9.4630003	6.33494166	-10.97568991
         202	1	68	1	0.0	14.20899963	4.85099983	-9.69900036
         203	1	68	3	0.0	13.32499981	4.49900007	-7.47599983
         204	1	68	4	0.0	15.37300014	5.86999989	-9.59000015
         205	1	69	1	0.0	14.47700024	1.97800004	-7.16800022
         206	1	69	3	0.0	15.47500038	1.60000002	-5.01399994
         207	1	69	4	0.0	14.33199978	0.52100003	-7.62200022
         208	1	70	1	0.0	17.81299973	3.02800012	-5.68300009
         209	1	70	3	0.0	18.11300087	5.12099981	-6.80900002
         210	1	70	4	0.0	19.05800056	2.2190001	-6.09100008
         211	1	71	1	0.0	18.97900009	6.42199993	-4.57600021
         212	1	71	3	0.0	21.1590004	5.48500013	-5.08199978
         213	1	71	4	0.0	18.5739994	7.11100006	-3.26699996
         214	1	72	1	0.0	22.47900009	7.92799997	-5.04799986
         215	1	72	3	0.0	24.63599968	7.11100006	-4.22300005
         216	1	72	4	0.0	22.72200012	9.43500042	-5.14799976
         217	1	73	1	0.0	23.65800095	6.28000021	-1.78499997
         218	1	73	3	0.0	24.16200066	4.04799986	-1.04999995
         219	1	73	4	0.0	23.26499939	6.76999998	-0.38600001
         220	1	74	1	0.0	22.69000053	2.7650001	-3.02099991
         221	1	74	3	0.0	21.29500008	0.995	-2.16799998
         222	1	74	5	0.0	22.88199997	1.5534219	-3.45695634
         223	1	75	1	0.0	19.64299965	2.6400001	-0.72500002
         224	1	75	3	0.0	18.14999962	3.07299995	-2.5150001
         225	1	75	4	0.0	19.28000069	3.68099999	0.345
         226	1	76	1	0.0	16.48699951	1.02199996	-2.0250001
         227	1	76	3	0.0	15.29599953	2.46700001	-0.528
         228	1	76	5	0.0	17.70899963	0.07692703	-2.84518344
         229	1	77	1	0.0	13.54300022	3.36599994	-2.39100003
         230	1	77	3	0.0	11.78800011	2.32800007	-3.68600011
         231	1	77	4	0.0	13.6590004	4.55200005	-3.33899999
         232	1	78	1	0.0	10.23400021	1.80400002	-1.52400005
         233	1	78	3	0.0	9.54500008	2.94199991	0.495
         234	1	78	4	0.0	10.50800037	0.25600001	-1.43700004
         235	1	79	1	0.0	7.03700018	1.745	0.428
         236	1	79	3	0.0	7.25500011	-0.65600002	0.528
         237	1	79	4	0.0	5.63000011	1.90199995	-0.147
         238	1	80	1	0.0	7.52600002	-0.773	3.21000004
         239	1	80	3	0.0	5.64900017	-0.273	4.64300013
         240	1	80	4	0.0	8.79300022	-0.65799999	4.12799978
         241	1	81	1	0.0	4.61299992	-2.77800012	4.67199993
         242	1	81	3	0.0	5.76300001	-4.71000004	5.46500015
         243	1	81	4	0.0	3.64400005	-3.41300011	3.70000005
         244	1	82	1	0.0	4.39099979	-4.67299986	7.98400021
         245	1	82	3	0.0	2.15300012	-4.5619998	8.7869997
         246	1	82	4	0.0	4.90899992	-3.90499997	9.18900013
         247	1	83	1	0.0	1.546	-7.20100021	8.06900024
         248	1	83	3	0.0	-0.61199999	-6.13999987	7.954
         249	1	83	4	0.0	1.26800001	-7.55299997	9.53299999
         250	1	84	1	0.0	-0.20999999	-5.19299984	5.42500019
         251	1	84	3	0.0	-0.98199999	-3.0079999	4.85500002
         252	1	84	5	0.0	0.79100001	-5.14470737	4.17581819
         253	1	85	1	0.0	0.134	-1.77100003	7.09499979
         254	1	85	3	0.0	2.49099994	-1.52100003	6.9380002
         255	1	85	4	0.0	0.031	-1.60300004	8.59700012
         256	1	86	1	0.0	2.36100006	0.77899998	5.28999996
         257	1	86	3	0.0	2.49300003	2.37899995	7.0539999
         258	1	86	4	0.0	1.89600003	1.72899997	4.20200014
         259	1	87	1	0.0	5.16699982	1.96000004	7.58799982
         260	1	87	3	0.0	5.17799997	4.28100014	8.10900021
         261	1	87	4	0.0	6.58799982	1.39300001	7.66099977
         262	1	88	1	0.0	5.53200006	5.17199993	5.51900005
         263	1	88	3	0.0	4.4289999	7.05100012	6.57299995
         264	1	88	4	0.0	5.69999981	5.33799982	3.98399997
         265	1	89	1	0.0	1.85800004	6.12900019	6.02400017
         266	1	89	3	0.0	1.29100001	7.19000006	8.14799976
         267	1	89	4	0.0	0.667	5.41200018	5.36800003
         268	1	90	1	0.0	1.91400003	5.02799988	9.66600037
         269	1	90	3	0.0	2.25399995	6.6960001	11.39099979
         270	1	90	4	0.0	2.28500009	3.63800001	10.21000004
         271	1	91	1	0.0	4.84000015	7.34200001	10.60499954
         272	1	91	3	0.0	4.09800005	9.50599957	11.35900021
         273	1	91	4	0.0	6.24300003	7.33599997	10.00599957
         274	1	92	1	0.0	3.13700008	10.32699966	8.89599991
         275	1	92	3	0.0	1.75199997	11.55599976	10.49100018
         276	1	92	4	0.0	2.82599998	10.45800018	7.36100006
         277	1	93	1	0.0	-0.25	9.60900021	10.56499958
         278	1	93	3	0.0	-0.76800001	10.66300011	12.65499973
         279	1	93	4	0.0	-1.02699995	8.31099987	10.46199989
         280	1	94	1	0.0	1.45700002	9.6239996	13.96000004
         281	1	94	3	0.0	2.65499997	11.23499966	15.30700016
         282	1	94	4	0.0	2.24399996	8.4460001	14.59799957
         283	1	95	1	0.0	3.26699996	12.92300034	13.25300026
         284	1	95	3	0.0	5.39499998	13.42300034	14.3210001
         285	1	95	5	0.0	2.47900009	13.45498059	12.30938369
         286	1	96	1	0.0	6.60099983	11.13099957	13.42700005
         287	1	96	3	0.0	8.68500042	11.15600014	12.21899986
         288	1	96	4	0.0	6.71600008	9.72900009	14.0340004
         289	1	97	1	0.0	7.45300007	11.86400032	9.74800014
         290	1	97	3	0.0	5.46799994	13.1079998	9.24699974
         291	1	97	4	0.0	7.52199984	10.63099957	8.78800011
         292	1	98	1	0.0	6.72800016	14.75399971	7.41300011
         293	1	98	3	0.0	7.65700006	13.42300034	5.67799997
         294	1	98	4	0.0	7.53800011	16.05800056	7.30499983
         295	1	99	1	0.0	5.75400019	14.17399979	3.84500003
         296	1	99	3	0.0	7.01499987	16.20999908	3.60500002
         297	1	99	4	0.0	4.44299984	14.53199959	3.19899988
         298	1	100	1	0.0	9.01200008	15.02200031	2.03999996
         299	1	100	3	0.0	9.20400047	13.16399956	0.495
         300	1	100	4	0.0	10.04300022	15.06000042	3.23000002
         301	1	101	1	0.0	11.26200008	14.27200031	-0.898
         302	1	101	3	0.0	10.42399979	12.58899975	-2.398
         303	1	101	4	0.0	12.20800018	13.17399979	-0.31299999
         304	1	102	1	0.0	8.34200001	14.15600014	-3.32999992
         305	1	102	3	0.0	8.8920002	15.52799988	-5.26000023
         306	1	102	4	0.0	6.9289999	14.75199986	-3.125
         307	1	103	1	0.0	10.08300018	13.51099968	-6.63500023
         308	1	103	3	0.0	8.42700005	11.99199963	-7.51399994
         309	1	103	4	0.0	11.43500042	12.78100014	-6.704
         310	1	104	1	0.0	8.31700039	13.37699986	-10.02299976
         311	1	104	3	0.0	6.89699984	11.4460001	-10.37800026
         312	1	104	4	0.0	8.99199963	14.06000042	-11.2489996
         313	1	105	1	0.0	8.89799976	9.69400024	-10.88199997
         314	1	105	3	0.0	7.99300003	7.57999992	-10.22399998
         315	1	105	5	0.0	9.08199978	8.39295809	-11.25928193
         316	1	106	1	0.0	8.14599991	8.11999989	-7.51300001
         317	1	106	3	0.0	7.56500006	8.95600033	-5.34899998
         318	1	106	4	0.0	9.41300011	7.71199989	-6.75500011
         319	1	107	1	0.0	5.00199986	9.80500031	-6.09200001
         320	1	107	3	0.0	2.66300011	9.86699963	-5.64599991
         321	1	107	4	0.0	4.85099983	11.25899982	-6.61399984
         322	1	108	1	0.0	2.18300009	7.24300003	-6.23099995
         323	1	108	3	0.0	0.132	7.77299976	-5.09100008
         324	1	108	4	0.0	2.26099992	5.75199986	-6.47900009
         325	1	109	1	0.0	1.11099994	7.40199995	-2.58599997
         326	1	109	3	0.0	0.875	8.94999981	-0.77700001
         327	1	109	4	0.0	1.51400006	6.31400013	-1.56799996
         328	1	110	1	0.0	1.66100001	11.15999985	-2.2420001
         329	1	110	3	0.0	0.35299999	12.18599987	-0.491
         330	1	110	4	0.0	2.06200004	12.15100002	-3.35500002
         331	1	111	1	0.0	-1.99600005	12.10999966	-1.69200003
         332	1	111	3	0.0	-3.00900006	11.96700001	0.54799998
         333	1	111	4	0.0	-3.09899998	12.36999989	-2.74799991
         334	1	112	1	0.0	-2.49900007	9.20600033	0.73199999
         335	1	112	3	0.0	-2.27699995	9.83100033	3.01699996
         336	1	112	4	0.0	-2.16499996	7.74800014	0.40700001
         337	1	113	1	0.0	0.38499999	10.39500046	2.86599994
         338	1	113	3	0.0	0.056	12.1789999	4.44399977
         339	1	113	4	0.0	1.903	10.23700047	2.57399988
         340	1	114	1	0.0	-0.63	14.08399963	2.74300003
         341	1	114	3	0.0	-2.11199999	14.97099972	4.4749999
         342	1	114	4	0.0	-0.67400002	15.05599976	1.551
         343	1	115	1	0.0	-4.09100008	13.03100014	4.00899982
         344	1	115	3	0.0	-4.29199982	13.2489996	6.36899996
         345	1	115	4	0.0	-5.00500011	11.99100018	3.35700011
         346	1	116	1	0.0	-2.42400002	11.27600002	6.91099977
         347	1	116	3	0.0	-1.91400003	12.64000034	8.81499958
         348	1	116	4	0.0	-1.48399997	10.07900047	6.83199978
         349	1	117	1	0.0	-0.23899999	14.33699989	7.5619998
         350	1	117	3	0.0	-1.12800002	16.00399971	9.07499981
         351	1	117	4	0.0	0.78200001	14.97900009	6.65299988
         352	1	118	1	0.0	-3.30699992	16.61899948	7.55100012
         353	1	118	3	0.0	-4.19099998	17.08099937	9.69099998
         354	1	118	4	0.0	-4.31799984	16.79899979	6.47399998
         355	1	119	1	0.0	-4.88199997	14.40499973	10.23900032
         356	1	119	3	0.0	-4.45499992	14.86999989	12.5369997
         357	1	119	4	0.0	-5.50199986	13.0170002	10.01099968
         358	1	120	1	0.0	-1.71399999	14.24499989	12.41699982
         359	1	120	3	0.0	-1.38699996	16.01399994	14.00699997
         360	1	120	4	0.0	-0.30599999	13.66600037	11.9630003
         361	1	121	1	0.0	-1.39999998	18.0170002	12.07800007
         362	1	121	3	0.0	-2.579	19.21699905	13.82900047
         363	1	121	4	0.0	-1.13100004	18.7670002	10.76000023
         364	1	122	1	0.0	-5.1420002	18.47599983	12.82299995
         365	1	122	3	0.0	-5.44399977	18.92099953	15.13700008
         366	1	122	4	0.0	-6.25600004	17.69799995	12.10900021
         367	1	123	1	0.0	-4.55999994	16.39800072	15.97599983
         368	1	123	3	0.0	-3.27900004	16.4279995	17.95999908
         369	1	123	4	0.0	-4.54899979	14.86800003	15.95899963
         370	1	124	1	0.0	-1.28999996	18.2140007	16.99200058
         371	1	124	3	0.0	0.142	17.23900032	18.65500069
         372	1	124	4	0.0	-1.59399998	19.2140007	18.12899971
         373	1	125	1	0.0	0.62599999	14.92099953	17.12899971
         374	1	125	3	0.0	2.61100006	15.52999973	15.92700005
         375	1	125	4	0.0	0.236	13.68999958	16.30800056
         376	1	126	1	0.0	4.28900003	14.72799969	18.01000023
         377	1	126	3	0.0	5.19700003	16.96100044	17.97699928
         378	1	126	4	0.0	4.6420002	13.34599972	17.45499992
         379	1	127	1	0.0	6.16400003	16.86700058	15.43599987
         380	1	127	3	0.0	5.81799984	19.25200081	15.43000031
         381	1	127	4	0.0	6.5999999	16.51099968	13.97799969
         382	1	128	1	0.0	3.00099993	18.98500061	15.11600018
         383	1	128	3	0.0	1.53600001	20.28300095	16.48500061
         384	1	128	4	0.0	1.85599995	18.52400017	14.22000027
         385	1	129	1	0.0	2.60800004	19.4260006	18.89900017
         386	1	129	3	0.0	4.15199995	21.31200027	18.83399963
         387	1	129	4	0.0	2.829	18.29199982	19.875

Bond Coeffs

           1	200.0	3.77
           2	200.0	2.41
           3	200.0	2.50
           4	200.0	1.54
           5	200.0	1.54
Bonds

           1	2	1	2
           2	4	1	3
           3	1	1	4
           4	3	2	4
           5	2	4	5
           6	4	4	6
           7	1	4	7
           8	3	5	7
           9	2	7	8
          10	4	7	9
          11	1	7	10
          12	3	8	10
          13	2	10	11
          14	4	10	12
          15	1	10	13
          16	3	11	13
          17	2	13	14
          18	4	13	15
          19	1	13	16
          20	3	14	16
          21	2	16	17
          22	4	16	18
          23	1	16	19
          24	3	17	19
          25	2	19	20
          26	4	19	21
          27	1	19	22
          28	3	20	22
          29	2	22	23
          30	4	22	24
          31	1	22	25
          32	3	23	25
          33	2	25	26
          34	4	25	27
          35	1	25	28
          36	3	26	28
          37	2	28	29
          38	4	28	30
          39	1	28	31
          40	3	29	31
          41	2	31	32
          42	4	31	33
          43	1	31	34
          44	3	32	34
          45	2	34	35
          46	4	34	36
          47	1	34	37
          48	3	35	37
          49	2	37	38
          50	4	37	39
          51	1	37	40
          52	3	38	40
          53	2	40	41
          54	5	40	42
          55	1	40	43
          56	3	41	43
          57	2	43	44
          58	4	43	45
          59	1	43	46
          60	3	44	46
          61	2	46	47
          62	4	46	48
          63	1	46	49
          64	3	47	49
          65	2	49	50
          66	4	49	51
          67	1	49	52
          68	3	50	52
          69	2	52	53
          70	4	52	54
          71	1	52	55
          72	3	53	55
          73	2	55	56
          74	4	55	57
          75	1	55	58
          76	3	56	58
          77	2	58	59
          78	4	58	60
          79	1	58	61
          80	3	59	61
          81	2	61	62
          82	4	61	63
          83	1	61	64
          84	3	62	64
          85	2	64	65
          86	4	64	66
          87	1	64	67
          88	3	65	67
          89	2	67	68
          90	5	67	69
          91	1	67	70
          92	3	68	70
          93	2	70	71
          94	4	70	72
          95	1	70	73
          96	3	71	73
          97	2	73	74
          98	4	73	75
          99	1	73	76
         100	3	74	76
         101	2	76	77
         102	4	76	78
         103	1	76	79
         104	3	77	79
         105	2	79	80
         106	4	79	81
         107	1	79	82
         108	3	80	82
         109	2	82	83
         110	4	82	84
         111	1	82	85
         112	3	83	85
         113	2	85	86
         114	4	85	87
         115	1	85	88
         116	3	86	88
         117	2	88	89
         118	4	88	90
         119	1	88	91
         120	3	89	91
         121	2	91	92
         122	4	91	93
         123	1	91	94
         124	3	92	94
         125	2	94	95
         126	4	94	96
         127	1	94	97
         128	3	95	97
         129	2	97	98
         130	4	97	99
         131	1	97	100
         132	3	98	100
         133	2	100	101
         134	4	100	102
         135	1	100	103
         136	3	101	103
         137	2	103	104
         138	4	103	105
         139	1	103	106
         140	3	104	106
         141	2	106	107
         142	4	106	108
         143	1	106	109
         144	3	107	109
         145	2	109	110
         146	4	109	111
         147	1	109	112
         148	3	110	112
         149	2	112	113
         150	4	112	114
         151	1	112	115
         152	3	113	115
         153	2	115	116
         154	4	115	117
         155	1	115	118
         156	3	116	118
         157	2	118	119
         158	4	118	120
         159	1	118	121
         160	3	119	121
         161	2	121	122
         162	4	121	123
         163	1	121	124
         164	3	122	124
         165	2	124	125
         166	4	124	126
         167	1	124	127
         168	3	125	127
         169	2	127	128
         170	5	127	129
         171	1	127	130
         172	3	128	130
         173	2	130	131
         174	4	130	132
         175	1	130	133
         176	3	131	133
         177	2	133	134
         178	4	133	135
         179	1	133	136
         180	3	134	136
         181	2	136	137
         182	4	136	138
         183	1	136	139
         184	3	137	139
         185	2	139	140
         186	4	139	141
         187	1	139	142
         188	3	140	142
         189	2	142	143
         190	4	142	144
         191	1	142	145
         192	3	143	145
         193	2	145	146
         194	4	145	147
         195	1	145	148
         196	3	146	148
         197	2	148	149
         198	4	148	150
         199	1	148	151
         200	3	149	151
         201	2	151	152
         202	4	151	153
         203	1	151	154
         204	3	152	154
         205	2	154	155
         206	4	154	156
         207	1	154	157
         208	3	155	157
         209	2	157	158
         210	4	157	159
         211	1	157	160
         212	3	158	160
         213	2	160	161
         214	4	160	162
         215	1	160	163
         216	3	161	163
         217	2	163	164
         218	4	163	165
         219	1	163	166
         220	3	164	166
         221	2	166	167
         222	4	166	168
         223	1	166	169
         224	3	167	169
         225	2	169	170
         226	4	169	171
         227	1	169	172
         228	3	170	172
         229	2	172	173
         230	4	172	174
         231	1	172	175
         232	3	173	175
         233	2	175	176
         234	4	175	177
         235	1	175	178
         236	3	176	178
         237	2	178	179
         238	4	178	180
         239	1	178	181
         240	3	179	181
         241	2	181	182
         242	4	181	183
         243	1	181	184
         244	3	182	184
         245	2	184	185
         246	4	184	186
         247	1	184	187
         248	3	185	187
         249	2	187	188
         250	4	187	189
         251	1	187	190
         252	3	188	190
         253	2	190	191
         254	4	190	192
         255	1	190	193
         256	3	191	193
         257	2	193	194
         258	4	193	195
         259	1	193	196
         260	3	194	196
         261	2	196	197
         262	4	196	198
         263	1	196	199
         264	3	197	199
         265	2	199	200
         266	5	199	201
         267	1	199	202
         268	3	200	202
         269	2	202	203
         270	4	202	204
         271	1	202	205
         272	3	203	205
         273	2	205	206
         274	4	205	207
         275	1	205	208
         276	3	206	208
         277	2	208	209
         278	4	208	210
         279	1	208	211
         280	3	209	211
         281	2	211	212
         282	4	211	213
         283	1	211	214
         284	3	212	214
         285	2	214	215
         286	4	214	216
         287	1	214	217
         288	3	215	217
         289	2	217	218
         290	4	217	219
         291	1	217	220
         292	3	218	220
         293	2	220	221
         294	5	220	222
         295	1	220	223
         296	3	221	223
         297	2	223	224
         298	4	223	225
         299	1	223	226
         300	3	224	226
         301	2	226	227
         302	5	226	228
         303	1	226	229
         304	3	227	229
         305	2	229	230
         306	4	229	231
         307	1	229	232
         308	3	230	232
         309	2	232	233
         310	4	232	234
         311	1	232	235
         312	3	233	235
         313	2	235	236