ITEM: TIMESTEP
0
ITEM: NUMBER OF ATOMS
387
ITEM: BOX BOUNDS ss ss ss
-6.296 24.676
-13.1534 21.352
-12.671 20.639
ITEM: ATOMS id type xs ys zs
1 1 0.277702 0.35213 0.14293
2 3 0.233695 0.299588 0.164665
3 4 0.289584 0.379662 0.177154
4 1 0.299561 0.252204 0.18583
5 3 0.365911 0.260376 0.223386
6 4 0.300917 0.219281 0.154548
7 1 0.337176 0.212848 0.2864
8 3 0.349542 0.147438 0.265206
9 4 0.305373 0.206588 0.320294
10 1 0.43662 0.146597 0.290423
11 3 0.455702 0.157465 0.358451
12 4 0.475462 0.15961 0.265326
13 1 0.478561 0.0836215 0.375173
14 3 0.550142 0.107067 0.363434
15 4 0.478045 0.0392517 0.37196
16 1 0.572388 0.110777 0.444221
17 3 0.538034 0.0901422 0.504353
18 4 0.581848 0.153871 0.440078
19 1 0.61349 0.0863747 0.548394
20 3 0.669637 0.134657 0.553287
21 4 0.636349 0.0467867 0.551126
22 1 0.653235 0.15248 0.632663
23 3 0.703765 0.102517 0.655209
24 4 0.629988 0.161377 0.672381
25 1 0.775959 0.152393 0.650976
26 3 0.785968 0.160131 0.721795
27 4 0.810894 0.162971 0.619544
28 1 0.781125 0.240032 0.720234
29 3 0.758976 0.29527 0.682888
30 4 0.82933 0.249567 0.722846
31 1 0.716938 0.329728 0.749535
32 3 0.788777 0.347435 0.767547
33 4 0.691205 0.333553 0.790003
34 1 0.787098 0.419627 0.730111
35 3 0.78458 0.46617 0.784509
36 4 0.806567 0.428031 0.687691
37 1 0.726043 0.514047 0.748304
38 3 0.659305 0.494688 0.718643
39 4 0.756328 0.549636 0.745422
40 1 0.616428 0.562213 0.729661
41 3 0.570386 0.538246 0.677034
42 5 0.662146 0.562359 0.724347
43 1 0.622821 0.556127 0.615971
44 3 0.652363 0.533116 0.552837
45 4 0.615588 0.596208 0.597748
46 1 0.711546 0.48153 0.589913
47 3 0.709447 0.443507 0.650585
48 4 0.758459 0.497905 0.58523
49 1 0.71019 0.373373 0.610087
50 3 0.737602 0.350797 0.546202
51 4 0.66389 0.360158 0.615821
52 1 0.781964 0.290459 0.578145
53 3 0.740992 0.23609 0.600901
54 4 0.823938 0.281938 0.601411
55 1 0.719941 0.210761 0.523566
56 3 0.774603 0.196097 0.475173
57 4 0.678548 0.222411 0.50072
58 1 0.748256 0.12008 0.464965
59 3 0.678548 0.109473 0.436626
60 4 0.753616 0.078289 0.479826
61 1 0.699341 0.134367 0.361423
62 3 0.755973 0.118544 0.315281
63 4 0.690236 0.176911 0.349505
64 1 0.707736 0.0586689 0.277484
65 3 0.780092 0.0335714 0.268358
66 4 0.712967 0.0773327 0.235635
67 1 0.790488 0.0111691 0.346593
68 3 0.86265 0.0175449 0.369679
69 5 0.752906 0.00115924 0.358384
70 1 0.865169 0.0995031 0.356439
71 3 0.820322 0.144742 0.390663
72 4 0.878277 0.122079 0.318013
73 1 0.881118 0.165116 0.447043
74 3 0.904301 0.21079 0.397478
75 4 0.920638 0.160218 0.474122
76 1 0.848444 0.267825 0.420775
77 3 0.801789 0.283358 0.475143
78 4 0.81635 0.264289 0.38637
79 1 0.825907 0.360535 0.478415
80 3 0.798786 0.389284 0.418343
81 4 0.859099 0.391139 0.489343
82 1 0.715905 0.40192 0.450946
83 3 0.705896 0.444029 0.506364
84 4 0.675675 0.377083 0.453587
85 1 0.68746 0.509149 0.455839
86 3 0.626824 0.505961 0.410387
87 4 0.714904 0.539927 0.433804
88 1 0.56861 0.5259 0.467877
89 3 0.567254 0.592383 0.448334
90 4 0.545783 0.531349 0.508796
91 1 0.516466 0.578993 0.381927
92 3 0.459544 0.59899 0.425338
93 4 0.492606 0.56033 0.346563
94 1 0.460674 0.675964 0.394236
95 3 0.427257 0.712654 0.445332
96 4 0.414859 0.664226 0.379316
97 1 0.486052 0.693062 0.505824
98 3 0.563929 0.696859 0.503783
99 4 0.470748 0.659474 0.533593
100 1 0.570644 0.737693 0.574392
101 3 0.535936 0.759487 0.634014
102 4 0.585045 0.777861 0.560973
103 1 0.585077 0.710596 0.682558
104 3 0.654688 0.739838 0.675293
105 4 0.589177 0.668197 0.697778
106 1 0.656787 0.771514 0.751846
107 3 0.684909 0.708133 0.761183
108 4 0.64074 0.781512 0.794086
109 1 0.769276 0.732622 0.763645
110 3 0.747417 0.741751 0.829721
111 4 0.81183 0.751865 0.751426
112 1 0.785677 0.677616 0.861903
113 3 0.785032 0.711958 0.923506
114 4 0.811701 0.640172 0.867517
115 1 0.848476 0.76508 0.904353
116 3 0.827328 0.828114 0.930501
117 4 0.894647 0.776441 0.892255
118 1 0.752809 0.833012 0.882768
119 3 0.706767 0.788236 0.917923
120 4 0.739636 0.844053 0.839868
121 1 0.646132 0.844053 0.939898
122 3 0.607839 0.824781 0.881417
123 4 0.62563 0.883178 0.949715
124 1 0.566996 0.759922 0.918583
125 3 0.570289 0.700771 0.880126
126 4 0.527444 0.775861 0.895557
127 1 0.661404 0.704597 0.870069
128 3 0.653074 0.635912 0.874512
129 5 0.633314 0.679794 0.807534
130 1 0.6646 0.630869 0.955149
131 3 0.616363 0.577283 0.950705
132 4 0.671962 0.644635 0.998799
133 1 0.541037 0.622407 0.948424
134 3 0.510203 0.572357 0.905644
135 4 0.508621 0.655474 0.956019
136 1 0.543329 0.606178 0.835605
137 3 0.548334 0.540043 0.81402
138 4 0.558504 0.636492 0.805284
139 1 0.6317 0.528682 0.84356
140 3 0.602383 0.465243 0.850495
141 4 0.677773 0.532856 0.860462
142 1 0.568255 0.477212 0.926479
143 3 0.515788 0.427655 0.906274
144 4 0.55689 0.494717 0.968208
145 1 0.46471 0.480748 0.866467
146 3 0.451569 0.421772 0.82822
147 4 0.443336 0.518162 0.852297
148 1 0.511849 0.43861 0.769349
149 3 0.520728 0.368968 0.766887
150 4 0.543297 0.460345 0.74248
151 1 0.579007 0.365635 0.830742
152 3 0.548657 0.301935 0.834884
153 4 0.607904 0.375692 0.867127
154 1 0.479078 0.325091 0.883578
155 3 0.444401 0.27449 0.847133
156 4 0.450213 0.346218 0.91366
157 1 0.415633 0.321816 0.786551
158 3 0.416667 0.260232 0.752116
159 4 0.40472 0.357984 0.761573
160 1 0.499064 0.265709 0.725548
161 3 0.508492 0.197749 0.733383
162 4 0.538486 0.281272 0.701561
163 1 0.537292 0.202936 0.8136
164 3 0.502034 0.142337 0.826719
165 4 0.562443 0.21705 0.850766
166 1 0.422963 0.17468 0.84347
167 3 0.371497 0.130889 0.812459
168 4 0.391483 0.199516 0.867487
169 1 0.388577 0.150799 0.735275
170 3 0.436878 0.0973875 0.726418
171 4 0.399135 0.174187 0.697929
172 1 0.376631 0.0460622 0.704233
173 3 0.409919 0.0220659 0.644131
174 4 0.342664 0.015806 0.716271
175 1 0.378277 0.0790425 0.594026
176 3 0.366492 0.147843 0.589823
177 4 0.336982 0.0674212 0.572201
178 1 0.444724 0.163783 0.547673
179 3 0.453894 0.131498 0.48529
180 4 0.494156 0.171289 0.55731
181 1 0.423447 0.194793 0.440979
182 3 0.436975 0.262956 0.447283
183 4 0.375856 0.19175 0.42912
184 1 0.480337 0.264666 0.37193
185 3 0.442658 0.247306 0.312489
186 4 0.526217 0.253334 0.358481
187 1 0.417474 0.323178 0.293636
188 3 0.442303 0.388125 0.290543
189 4 0.372336 0.335901 0.307055
190 1 0.483372 0.380213 0.218403
191 3 0.414471 0.390588 0.187031
192 4 0.514594 0.362419 0.187721
193 1 0.43507 0.466373 0.163645
194 3 0.471361 0.435161 0.108046
195 4 0.438687 0.508019 0.179976
196 1 0.442012 0.488718 0.0505254
197 3 0.497675 0.495702 0.00120084
198 4 0.403978 0.509323 0.0303812
199 1 0.549755 0.543695 0.0494446
200 3 0.585949 0.485066 0.0656259
201 5 0.508814 0.564791 0.0508949
202 1 0.66205 0.521785 0.0892224
203 3 0.633508 0.511584 0.155959
204 4 0.699632 0.551317 0.0924947
205 1 0.670703 0.438523 0.165206
206 3 0.702925 0.427568 0.229871
207 4 0.666021 0.396297 0.151576
208 1 0.778413 0.468953 0.209787
209 3 0.788099 0.52961 0.175983
210 4 0.81861 0.445507 0.197538
211 1 0.81606 0.567314 0.24302
212 3 0.886446 0.540159 0.227829
213 4 0.802983 0.587282 0.282318
214 1 0.929065 0.610959 0.22885
215 3 0.998709 0.587282 0.253618
216 4 0.936911 0.654634 0.225848
217 1 0.967132 0.563199 0.326809
218 3 0.983404 0.498513 0.348874
219 4 0.954443 0.577399 0.368808
220 1 0.935878 0.461331 0.289703
221 3 0.890837 0.410034 0.315311
222 5 0.942077 0.426218 0.276615
223 1 0.837498 0.457708 0.358631
224 3 0.789294 0.470257 0.304893
225 4 0.825778 0.487877 0.390754
226 1 0.7356 0.410817 0.319604
227 3 0.697146 0.452694 0.364545
228 5 0.775055 0.383428 0.294981
229 1 0.640546 0.478748 0.308616
230 3 0.583882 0.448666 0.269739
231 4 0.644292 0.51312 0.280156
232 1 0.533708 0.43348 0.334644
233 3 0.511462 0.46646 0.395257
234 4 0.542555 0.388617 0.337256
235 1 0.430486 0.43177 0.393245
236 3 0.437524 0.362187 0.396247
237 4 0.385057 0.43632 0.375983
238 1 0.446274 0.358796 0.476764
239 3 0.385671 0.373286 0.519784
240 4 0.487182 0.362129 0.504323
241 1 0.352221 0.300689 0.520654
242 3 0.389352 0.244698 0.544461
243 4 0.320935 0.282286 0.491474
244 1 0.345054 0.24577 0.620084
245 3 0.272795 0.248987 0.644191
246 4 0.361778 0.268027 0.656259
247 1 0.253196 0.172506 0.622636
248 3 0.183521 0.203255 0.619183
249 4 0.244221 0.162305 0.666587
250 1 0.1965 0.2307 0.54326
251 3 0.171574 0.294023 0.526148
252 5 0.22882 0.2321 0.505759
253 1 0.207607 0.329873 0.593395
254 3 0.283708 0.337118 0.588682
255 4 0.204281 0.334742 0.638487
256 1 0.279511 0.403774 0.539207
257 3 0.283772 0.450144 0.592164
258 4 0.264497 0.431306 0.506545
259 1 0.370108 0.438001 0.608196
260 3 0.370464 0.505266 0.623837
261 4 0.415989 0.421569 0.610387
262 1 0.381893 0.531088 0.546082
263 3 0.346281 0.585543 0.577724
264 4 0.387318 0.535899 0.5
265 1 0.26327 0.558823 0.561243
266 3 0.244963 0.589571 0.625007
267 4 0.224816 0.538043 0.541549
268 1 0.265078 0.526915 0.670579
269 3 0.276056 0.575255 0.722366
270 4 0.277057 0.486631 0.686911
271 1 0.359551 0.593977 0.698769
272 3 0.335593 0.656691 0.721405
273 4 0.40485 0.593803 0.680787
274 1 0.304565 0.680485 0.647463
275 3 0.259848 0.716102 0.695347
276 4 0.294524 0.684281 0.601381
277 1 0.195209 0.659676 0.697568
278 3 0.178484 0.690222 0.760312
279 4 0.170121 0.622059 0.694476
280 1 0.250323 0.660111 0.79949
281 3 0.289003 0.706799 0.839928
282 4 0.275733 0.625972 0.818643
283 1 0.308763 0.755719 0.778265
284 3 0.37747 0.77021 0.810327
285 5 0.28332 0.771137 0.749936
286 1 0.416408 0.703785 0.783488
287 3 0.483695 0.70451 0.747223
288 4 0.420121 0.663154 0.801711
289 1 0.443917 0.725028 0.673041
290 3 0.379827 0.761081 0.658001
291 4 0.446145 0.689295 0.644221
292 1 0.420509 0.808784 0.602942
293 3 0.450504 0.77021 0.550856
294 4 0.446662 0.846575 0.5997
295 1 0.389061 0.791975 0.495827
296 3 0.429775 0.85098 0.488622
297 4 0.346733 0.80235 0.476433
298 1 0.494253 0.81655 0.441639
299 3 0.500452 0.762704 0.395257
300 4 0.527541 0.817652 0.477364
301 1 0.566899 0.794815 0.353437
302 3 0.539842 0.74604 0.308406
303 4 0.597443 0.762994 0.371
304 1 0.47262 0.791453 0.280426
305 3 0.490378 0.831215 0.222486
306 4 0.426999 0.808726 0.286581
307 1 0.528833 0.77276 0.181207
308 3 0.475365 0.728738 0.154818
309 4 0.572485 0.751604 0.179135
310 1 0.471813 0.768877 0.0794956
311 3 0.425965 0.712914 0.0688382
312 4 0.493607 0.788671 0.0426899
313 1 0.490572 0.66214 0.0537076
314 3 0.461352 0.600874 0.0734614
315 5 0.496513 0.624434 0.0423812
316 1 0.466292 0.616524 0.154848
317 3 0.447533 0.640752 0.219814
318 4 0.5072 0.604699 0.177604
319 1 0.364781 0.665357 0.197508
320 3 0.289261 0.667153 0.210898
321 4 0.359906 0.707495 0.181837
322 1 0.273763 0.591107 0.193335
323 3 0.207542 0.606467 0.227559
324 4 0.276282 0.547897 0.18589
325 1 0.239151 0.595715 0.302762
326 3 0.231532 0.640578 0.35707
327 4 0.252163 0.564184 0.333323
328 1 0.256909 0.704626 0.313089
329 3 0.214678 0.73436 0.365656
330 4 0.269857 0.733346 0.279676
331 1 0.138835 0.732158 0.329601
332 3 0.106128 0.728014 0.396848
333 4 0.103222 0.739693 0.297899
334 1 0.122595 0.647997 0.402372
335 3 0.129762 0.66611 0.47097
336 4 0.133379 0.605743 0.392615
337 1 0.215711 0.682455 0.466436
338 3 0.205088 0.734157 0.51381
339 4 0.264723 0.677876 0.45767
340 1 0.182939 0.789366 0.462744
341 3 0.13509 0.815072 0.51474
342 4 0.181519 0.817536 0.426959
343 1 0.0711933 0.758849 0.50075
344 3 0.0647036 0.765167 0.5716
345 4 0.0416828 0.728709 0.481177
346 1 0.125016 0.707988 0.587871
347 3 0.141483 0.747518 0.645031
348 4 0.155366 0.673297 0.5855
349 1 0.195564 0.796698 0.607415
350 3 0.16686 0.84501 0.652837
351 4 0.228529 0.815304 0.580126
352 1 0.0965065 0.862833 0.607085
353 3 0.0679646 0.876222 0.67133
354 4 0.0638641 0.86805 0.574752
355 1 0.0456541 0.798669 0.687781
356 3 0.0594408 0.812145 0.75677
357 4 0.0256361 0.758444 0.680937
358 1 0.14794 0.794032 0.753167
359 3 0.158498 0.8453 0.800901
360 4 0.1934 0.777252 0.739538
361 1 0.158078 0.903348 0.74299
362 3 0.120012 0.938126 0.795557
363 4 0.166764 0.925084 0.703422
364 1 0.0372595 0.916651 0.765356
365 3 0.0275087 0.929547 0.834824
366 4 0.00129149 0.894104 0.743921
367 1 0.0560506 0.856428 0.860012
368 3 0.0974106 0.857298 0.919574
369 4 0.0564058 0.812087 0.859502
370 1 0.16163 0.909058 0.890513
371 3 0.207865 0.880801 0.940438
372 4 0.151815 0.938039 0.924647
373 1 0.223492 0.813623 0.894626
374 3 0.287582 0.831273 0.858541
375 4 0.2109 0.777948 0.869979
376 1 0.34176 0.80803 0.921075
377 3 0.371077 0.872745 0.920084
378 4 0.353158 0.767978 0.904413
379 1 0.402299 0.87002 0.843801
380 3 0.391127 0.93914 0.843621
381 4 0.416376 0.859703 0.80003
382 1 0.300174 0.931402 0.834194
383 3 0.252874 0.969019 0.875293
384 4 0.263205 0.918042 0.807295
385 1 0.287485 0.944183 0.947763
386 3 0.337337 0.998841 0.945812
387 4 0.294621 0.911318 0.977064
