LAMMPS protain data file

         450  atoms
         598  bonds
           0  angles
           0  dihedrals
           0  impropers

           5  atom types
           5  bond types
           0  angle types
           0  dihedral types
           0  improper types

-200.0	200.0	xlo xhi
-200.0	200.0	ylo yhi
-200.0	200.0	zlo zhi

Masses

           1	27.0
           2	14.0
           3	28.0
           4	60.0
           5	60.0

Atoms

           1	1	1	1	0.0	3.2190001	-7.85300016	-18.64800072
           2	1	1	3	0.0	2.54500008	-10.06599998	-17.94400024
           3	1	1	4	0.0	4.30299997	-6.82399988	-18.29299927
           4	1	2	1	0.0	3.29500008	-9.67700005	-15.27900028
           5	1	2	3	0.0	1.375	-8.40100002	-14.52099991
           6	1	2	4	0.0	4.47900009	-9.36699963	-14.35900021
           7	1	3	1	0.0	0.146	-10.73499966	-13.38799953
           8	1	3	3	0.0	0.419	-12.40200043	-11.65999985
           9	1	3	4	0.0	-0.77499998	-11.59399986	-14.28199959
          10	1	4	1	0.0	0.498	-10.51900005	-9.60400009
          11	1	4	3	0.0	-1.727	-9.9289999	-8.89400005
          12	1	4	4	0.0	1.13300002	-9.33600044	-8.87300014
          13	1	5	1	0.0	-2.421	-12.53899956	-8.25800037
          14	1	5	3	0.0	-1.29299998	-13.53100014	-6.36499977
          15	1	5	4	0.0	-2.95900011	-13.66600037	-9.14000034
          16	1	6	1	0.0	-3.36899996	-12.81799984	-4.57800007
          17	1	6	3	0.0	-5.68300009	-13.35499954	-4.94799995
          18	1	6	4	0.0	-3.20799994	-11.5369997	-3.77399993
          19	1	7	1	0.0	-5.90399981	-14.92000008	-2.65499997
          20	1	7	3	0.0	-5.77199984	-14.73099995	-0.25099999
          21	1	7	4	0.0	-5.58699989	-16.42000008	-2.60100007
          22	1	8	1	0.0	-7.83300018	-12.81999969	-0.124
          23	1	8	3	0.0	-9.97900009	-13.80099964	-0.65700001
          24	1	8	4	0.0	-7.96099997	-11.29500008	-0.264
          25	1	9	1	0.0	-10.65400028	-14.09700012	2.05299997
          26	1	9	3	0.0	-11.41899967	-12.0880003	3.11400008
          27	1	9	4	0.0	-10.33300018	-14.86200047	3.33599997
          28	1	10	1	0.0	-13.75599957	-11.94799995	1.51999998
          29	1	10	3	0.0	-15.51099968	-13.56400013	1.82799995
          30	1	10	4	0.0	-14.13399982	-11.4829998	0.114
          31	1	11	1	0.0	-16.58499908	-12.18400002	4.0619998
          32	1	11	3	0.0	-18.30699921	-10.51799965	3.71000004
          33	1	11	4	0.0	-16.43300056	-11.71500015	5.51200008
          34	1	12	1	0.0	-19.46500015	-11.98999977	1.625
          35	1	12	3	0.0	-20.87899971	-12.69299984	3.39899993
          36	1	12	4	0.0	-19.81299973	-13.10000038	0.64600003
          37	1	13	1	0.0	-22.4090004	-10.33500004	3.5150001
          38	1	13	3	0.0	-24.44300079	-11.50399971	4.02400017
          39	1	13	4	0.0	-22.58799934	-8.81599998	3.46099997
          40	1	14	1	0.0	-24.95700073	-12.19400024	1.31900001
          41	1	14	3	0.0	-25.98900032	-14.0710001	2.43499994
          42	1	14	4	0.0	-24.85499954	-12.23400021	-0.21799999
          43	1	15	1	0.0	-23.65999985	-15.61299992	2.39499998
          44	1	15	3	0.0	-22.89500046	-16.71899986	4.375
          45	1	15	4	0.0	-22.75300026	-16.39900017	1.43700004
          46	1	16	1	0.0	-22.11899948	-14.23200035	5.67199993
          47	1	16	3	0.0	-20.5510006	-15.52499962	7.01499987
          48	1	16	4	0.0	-23.16900063	-14.32600021	6.78100014
          49	1	17	1	0.0	-19.2140007	-16.52899933	4.72300005
          50	1	17	3	0.0	-18.07799911	-15.01399994	3.21300006
          51	1	17	4	0.0	-19.68099976	-17.79599953	3.99099994
          52	1	18	1	0.0	-15.53199959	-16.12100029	3.89700007
          53	1	18	3	0.0	-15.13799953	-18.19400024	2.72099996
          54	1	18	4	0.0	-14.52299976	-16.30999947	5.02299976
          55	1	19	1	0.0	-14.58300018	-16.88299942	0.287
          56	1	19	3	0.0	-12.84300041	-15.2489996	0.035
          57	1	19	4	0.0	-15.57199955	-16.51099968	-0.829
          58	1	20	1	0.0	-11.09300041	-17.00300026	-1.23699999
          59	1	20	3	0.0	-11.0539999	-17.49399948	-3.5999999
          60	1	20	4	0.0	-10.18000031	-18.18799973	-0.89200002
          61	1	21	1	0.0	-11.18799973	-14.76299953	-4.29500008
          62	1	21	3	0.0	-8.81999969	-14.39700031	-3.98900008
          63	1	21	4	0.0	-11.99199963	-13.44400024	-4.32299995
          64	1	22	1	0.0	-8.29199982	-14.30000019	-6.75500011
          65	1	22	3	0.0	-8.67199993	-12.49699974	-8.3380003
          66	1	22	4	0.0	-8.13199997	-15.2840004	-7.91099977
          67	1	23	1	0.0	-7.22200012	-10.65200043	-6.80999994
          68	1	23	3	0.0	-4.85900021	-10.61100006	-7.28499985
          69	1	23	4	0.0	-7.046	-9.85099983	-5.51599979
          70	1	24	1	0.0	-5.28999996	-10.3210001	-10.06999969
          71	1	24	3	0.0	-5.86399984	-7.99499989	-10.46800041
          72	1	24	4	0.0	-5.704	-11.08899975	-11.34200001
          73	1	25	1	0.0	-3.10400009	-7.22399998	-10.31499958
          74	1	25	3	0.0	-1.26600003	-8.11999989	-11.59599972
          75	1	25	4	0.0	-2.43300009	-6.79699993	-9.0170002
          76	1	26	1	0.0	-1.15199995	-5.97800016	-13.29100037
          77	1	26	3	0.0	-0.079	-4.05000019	-12.33100033
          78	1	26	4	0.0	-1.79200006	-5.18599987	-14.43400002
          79	1	27	1	0.0	2.47000003	-5.21299982	-12.27799988
          80	1	27	3	0.0	2.98200011	-2.89700007	-12.22799969
          81	1	27	4	0.0	3.7019999	-6.04500008	-12.64000034
          82	1	28	1	0.0	2.50200009	-2.51200008	-14.99800014
          83	1	28	3	0.0	2.43099999	-0.38	-13.97000027
          84	1	28	4	0.0	1.954	-2.65400004	-16.42399979
          85	1	29	1	0.0	-0.15800001	-0.76599997	-12.89000034
          86	1	29	3	0.0	0.50999999	0.66900003	-11.1260004
          87	1	29	4	0.0	-1.56700003	-1.31900001	-12.77200031
          88	1	30	1	0.0	1.66700006	-1.39499998	-9.58199978
          89	1	30	3	0.0	2.96399999	0.56	-9.23700047
          90	1	30	4	0.0	1.94599998	-2.79500008	-9.0539999
          91	1	31	1	0.0	5.08099985	-0.27900001	-10.99100018
          92	1	31	3	0.0	5.67500019	1.91999996	-11.64999962
          93	1	31	4	0.0	5.96999979	-1.10399997	-11.94200039
          94	1	32	1	0.0	3.102	2.648	-12.5710001
          95	1	32	3	0.0	3.0150001	4.68599987	-11.30500031
          96	1	32	4	0.0	2.03699994	2.48200011	-13.65100002
          97	1	33	1	0.0	1.06599998	3.71799994	-9.49300003
          98	1	33	3	0.0	2.1730001	5.35099983	-8.09399986
          99	1	33	4	0.0	0.119	2.77600002	-8.75500011
         100	1	34	1	0.0	4.3039999	3.59299994	-7.51300001
         101	1	34	3	0.0	5.64599991	5.52699995	-7.51399994
         102	1	34	4	0.0	5.10099983	2.32500005	-7.18200016
         103	1	35	1	0.0	5.92000008	5.69299984	-10.30300045
         104	1	35	3	0.0	5.38199997	7.74300003	-11.49499989
         105	1	35	4	0.0	6.37400007	5.05600023	-11.63199997
         106	1	36	1	0.0	3.28900003	8.40999985	-9.71100044
         107	1	36	3	0.0	3.39700007	10.30500031	-8.21800041
         108	1	36	4	0.0	1.88900006	8.01099968	-10.20699978
         109	1	37	1	0.0	3.07399988	8.72000027	-5.91300011
         110	1	37	3	0.0	5.47599983	8.72599983	-5.94000006
         111	1	37	4	0.0	2.67799997	7.54799986	-5.01599979
         112	1	38	1	0.0	5.74599981	10.82299995	-4.09600019
         113	1	38	3	0.0	5.73999977	9.07299995	-2.44199991
         114	1	38	4	0.0	5.36100006	12.13700008	-3.41499996
         115	1	39	1	0.0	8.51599979	9.02099991	-2.22399998
         116	1	39	3	0.0	9.72000027	10.34000015	-0.583
         117	1	39	4	0.0	9.83899975	8.79199982	-2.92700005
         118	1	40	1	0.0	7.70200014	9.98400021	1.352
         119	1	40	3	0.0	5.5619998	9.10599995	1.97500002
         120	1	40	4	0.0	7.31599998	11.47500038	1.29799998
         121	1	41	1	0.0	6.58400011	7.86299992	4.296
         122	1	41	3	0.0	6.0999999	9.69400024	5.76599979
         123	1	41	4	0.0	7.52400017	7.17799997	5.29799986
         124	1	42	1	0.0	3.27900004	9.27799988	5.59700012
         125	1	42	3	0.0	3.95600009	11.44299984	6.4000001
         126	1	42	5	0.0	4.3499999	8.4670613	5.96760541
         127	1	43	1	0.0	3.45499992	12.71899986	3.96000004
         128	1	43	3	0.0	2.79200006	14.17700005	2.12299991
         129	1	43	4	0.0	4.94000006	12.94499969	3.62100005
         130	1	44	1	0.0	0.40900001	12.80900002	1.71899998
         131	1	44	3	0.0	-1.10399997	12.34799957	3.53699994
         132	1	44	4	0.0	0.57300001	11.79199982	0.579
         133	1	45	1	0.0	-3.35800004	13.09200001	2.03699994
         134	1	45	3	0.0	-3.90799999	11.76000023	3.98099995
         135	1	45	5	0.0	-1.96599996	13.07593896	1.89748104
         136	1	46	1	0.0	-4.18400002	9.40499973	2.50999999
         137	1	46	3	0.0	-3.10500002	7.6079998	3.6730001
         138	1	46	4	0.0	-4.54799986	8.44999981	1.37600005
         139	1	47	1	0.0	-0.653	9.19099998	4.12300014
         140	1	47	3	0.0	1.49000001	8.77299976	3.09100008
         141	1	47	4	0.0	-0.82200003	8.34899998	5.40100002
         142	1	48	1	0.0	0.347	6.86299992	1.26699996
         143	1	48	3	0.0	0.75199997	8.80200005	-0.071
         144	1	48	4	0.0	-0.70499998	6.03000021	0.53200001
         145	1	49	1	0.0	2.85500002	5.84299994	0.23800001
         146	1	49	3	0.0	4.19999981	6.73899984	2.03900003
         147	1	49	4	0.0	3.82500005	5.4380002	-0.86299998
         148	1	50	1	0.0	3.43099999	4.76999998	3.8039999
         149	1	50	3	0.0	4.58900023	2.81900001	2.977
         150	1	50	4	0.0	2.26999998	4.4289999	4.75400019
         151	1	51	1	0.0	6.54400015	2.94499993	4.97800016
         152	1	51	3	0.0	4.99700022	1.49600005	6.15399981
         153	1	51	4	0.0	7.50699997	3.45499992	6.04699993
         154	1	52	1	0.0	6.1789999	-0.78399998	4.9460001
         155	1	52	3	0.0	8.30799961	-1.74600005	5.51800013
         156	1	52	4	0.0	6.2420001	-1.49899995	3.60599995
         157	1	53	1	0.0	7.47300005	-2.10599995	8.23999977
         158	1	53	3	0.0	9.25899982	-3.64199996	8.01799965
         159	1	53	4	0.0	6.5710001	-2.38499999	9.44299984
         160	1	54	1	0.0	7.82299995	-5.41800022	6.29500008
         161	1	54	3	0.0	9.17500019	-7.15500021	7.3210001
         162	1	54	4	0.0	8.95600033	-5.16599989	5.28299999
         163	1	55	1	0.0	7.90199995	-6.93499994	9.78600025
         164	1	55	3	0.0	8.92399979	-6.36100006	11.83399963
         165	1	55	5	0.0	7.56899977	-7.66507056	9.79815172
         166	1	56	1	0.0	10.78600025	-4.53999996	10.77299976
         167	1	56	3	0.0	8.90299988	-3.27999997	11.6079998
         168	1	56	4	0.0	11.69900036	-3.80800009	9.78100014
         169	1	57	1	0.0	10.41699982	-1.977	13.57900047
         170	1	57	3	0.0	10.10200024	0.412	13.58100033
         171	1	57	4	0.0	11.08199978	-2.16899991	14.94299984
         172	1	58	1	0.0	12.04399967	0.815	11.5170002
         173	1	58	3	0.0	13.98999977	2.18099999	11.87699986
         174	1	58	5	0.0	11.59300041	1.81326567	10.11892994
         175	1	59	1	0.0	15.74199963	-0.02	11.78600025
         176	1	59	3	0.0	17.34700012	-1.04400003	10.34599972
         177	1	59	4	0.0	16.08600044	-0.044	13.27499962
         178	1	60	1	0.0	16.27700043	-3.66300011	10.71399975
         179	1	60	3	0.0	15.65699959	-5.96299982	10.97999954
         180	1	60	5	0.0	15.79899979	-3.87390678	8.98171512
         181	1	61	1	0.0	15.20499992	-5.73600006	13.7159996
         182	1	61	3	0.0	13.0170002	-4.8119998	13.27700043
         183	1	61	4	0.0	15.65100002	-5.53299999	15.17599964
         184	1	62	1	0.0	11.7329998	-7.24499989	13.86600018
         185	1	62	3	0.0	11.97799969	-7.94199991	16.14599991
         186	1	62	4	0.0	11.43400002	-8.41600037	12.92599964
         187	1	63	1	0.0	9.29300022	-7.39400005	16.87299919
         188	1	63	3	0.0	9.63000011	-9.77000046	16.47299957
         189	1	63	4	0.0	8.00800037	-6.55499983	16.81500053
         190	1	64	1	0.0	7.82299995	-10.54599953	18.49399948
         191	1	64	3	0.0	6.01100016	-10.86699963	16.92499924
         192	1	64	4	0.0	6.90500021	-10.50699997	19.7310009
         193	1	65	1	0.0	7.3670001	-13.01000023	15.61999989
         194	1	65	3	0.0	6.9920001	-11.85400009	13.52200031
         195	1	65	5	0.0	7.83900023	-13.34559746	14.36846856
         196	1	66	1	0.0	9.75500011	-11.91699982	12.86699963
         197	1	66	3	0.0	9.38099957	-13.87100029	11.51900005
         198	1	66	4	0.0	11.27600002	-12.08100033	12.94900036
         199	1	67	1	0.0	7.94700003	-12.44200039	9.5539999
         200	1	67	3	0.0	7.08099985	-10.99600029	7.80999994
         201	1	67	4	0.0	6.51599979	-12.96399975	9.8039999
         202	1	68	1	0.0	9.54500008	-10.13500023	6.91900015
         203	1	68	3	0.0	9.82299995	-11.86800003	5.28999996
         204	1	68	4	0.0	10.99600029	-9.67800045	7.07399988
         205	1	69	1	0.0	7.96099997	-10.76099968	3.50900006
         206	1	69	3	0.0	9.84599972	-9.80799961	2.34599996
         207	1	69	4	0.0	6.85400009	-9.93200016	2.81500006
         208	1	70	1	0.0	10.80599976	-12.33500004	1.55999994
         209	1	70	3	0.0	9.59899998	-13.08399963	-0.40000001
         210	1	70	4	0.0	11.41699982	-13.69099998	1.926
         211	1	71	1	0.0	10.70300007	-11.01599979	-2.00900006
         212	1	71	3	0.0	11.40699959	-12.20800018	-3.98900008
         213	1	71	4	0.0	10.80599976	-9.51599979	-2.29099989
         214	1	72	1	0.0	14.08100033	-12.49499989	-3.03999996
         215	1	72	3	0.0	16.03199959	-11.76200008	-4.2670002
         216	1	72	5	0.0	12.9289999	-12.92970282	-3.22049724
         217	1	73	1	0.0	16.06100082	-9.22399998	-3.05599999
         218	1	73	3	0.0	16.43899918	-9.33199978	-0.676
         219	1	73	4	0.0	15.33500004	-7.95800018	-3.5079999
         220	1	74	1	0.0	18.93499947	-8.01000023	-0.88099998
         221	1	74	3	0.0	18.62599945	-6.4749999	0.89499998
         222	1	74	4	0.0	20.39900017	-8.04800034	-1.31299996
         223	1	75	1	0.0	17.71899986	-4.36299992	-0.80500001
         224	1	75	3	0.0	16.07600021	-3.6170001	0.77700001
         225	1	75	4	0.0	17.73500061	-3.3900001	-1.99199998
         226	1	76	1	0.0	14.07299995	-5.35300016	-0.171
         227	1	76	3	0.0	13.23499966	-5.77199984	2.03500009
         228	1	76	4	0.0	13.14999962	-6.11000013	-1.12100005
         229	1	77	1	0.0	15.30700016	-7.60400009	2.67199993
         230	1	77	3	0.0	16.44799995	-7.1329999	4.74499989
         231	1	77	4	0.0	15.90499973	-8.98799992	2.41199994
         232	1	78	1	0.0	17.83799934	-4.90799999	3.73099995
         233	1	78	3	0.0	15.88099957	-4.11399984	4.88100004
         234	1	78	4	0.0	18.51300049	-3.93400002	2.76799989
         235	1	79	1	0.0	17.26600075	-2.84899998	6.9369998
         236	1	79	3	0.0	17.40999985	-0.67699999	5.9289999
         237	1	79	4	0.0	18.39900017	-2.66700006	7.94199991
         238	1	80	1	0.0	14.67399979	-0.133	6.05200005
         239	1	80	3	0.0	14.3210001	1.01199996	8.14500046
         240	1	80	4	0.0	13.20899963	-0.537	5.9460001
         241	1	81	1	0.0	16.40399933	2.86100006	7.62699986
         242	1	81	3	0.0	15.65100002	5.10200024	7.0619998
         243	1	81	4	0.0	17.8029995	3.32399988	7.19000006
         244	1	82	1	0.0	13.08300018	4.64599991	8.20199966
         245	1	82	3	0.0	13.43999958	5.30299997	10.50599957
         246	1	82	4	0.0	11.7840004	3.85599995	8.37800026
         247	1	83	1	0.0	13.63799953	8.04100037	9.8409996
         248	1	83	3	0.0	11.34000015	7.78100014	10.48600006
         249	1	83	4	0.0	14.45400047	9.125	9.12800026
         250	1	84	1	0.0	10.91300011	10.42300034	11.22799969
         251	1	84	3	0.0	8.8579998	9.46199989	10.42000008
         252	1	84	4	0.0	11.19499969	11.88399982	11.59300041
         253	1	85	1	0.0	8.89799976	10.82299995	7.98500013
         254	1	85	3	0.0	9.06099987	10.07499981	5.68499994
         255	1	85	4	0.0	8.54599953	12.20899963	7.42399979
         256	1	86	1	0.0	11.02799988	8.11600018	6.27099991
         257	1	86	3	0.0	11.25399971	8.5340004	3.90799999
         258	1	86	5	0.0	10.3380003	6.27071532	5.74014509
         259	1	87	1	0.0	12.7130003	10.91300011	4.25400019
         260	1	87	3	0.0	13.75800037	12.86600018	5.28900003
         261	1	87	4	0.0	11.56099987	11.80599976	3.76200008
         262	1	88	1	0.0	16.26000023	11.6619997	5.3579998
         263	1	88	3	0.0	16.4810009	13.06000042	3.39400005
         264	1	88	5	0.0	15.0170002	11.06722032	6.19626372
         265	1	89	1	0.0	19.19400024	12.31099987	3.05599999
         266	1	89	3	0.0	19.37899971	11.61699963	0.75599998
         267	1	89	4	0.0	20.56699944	12.64999962	3.64400005
         268	1	90	1	0.0	19.25300026	8.82499981	1.43099999
         269	1	90	3	0.0	18.97500038	6.45900011	1.91900003
         270	1	90	4	0.0	20.70999908	8.50500011	1.05999994
         271	1	91	1	0.0	16.68799973	6.81699991	3.46700001
         272	1	91	3	0.0	16.18000031	6.0250001	1.24300003
         273	1	91	4	0.0	15.39000034	7.40700006	4.01999998
         274	1	92	1	0.0	16.28000069	3.33200002	1.94099998
         275	1	92	3	0.0	15.54300022	1.23399997	2.94899988
         276	1	92	4	0.0	17.61000061	2.67499995	1.52699995
         277	1	93	1	0.0	12.98600006	2.19199991	3.43300009
         278	1	93	3	0.0	11.875	2.12100005	1.29700005
         279	1	93	4	0.0	12.20100021	3.1099999	4.38000011
         280	1	94	1	0.0	10.53100014	-0.257	1.86600006
         281	1	94	3	0.0	8.6789999	0.45300001	3.18199992
         282	1	94	4	0.0	10.45199966	-1.76199996	2.14499998
         283	1	95	1	0.0	7.32200003	1.62800002	1.005
         284	1	95	3	0.0	6.55600023	-0.361	-0.14
         285	1	95	4	0.0	7.24399996	2.89299989	0.132
         286	1	96	1	0.0	3.83699989	0.094	0.64099997
         287	1	96	3	0.0	1.88900006	1.49600005	0.97600001
         288	1	96	4	0.0	3.46199989	-0.77899998	1.83299994
         289	1	97	1	0.0	1.44400001	1.83599997	-1.72399998
         290	1	97	3	0.0	0.43700001	-0.18700001	-2.51300001
         291	1	97	4	0.0	1.94799995	2.49499989	-3.01099992
         292	1	98	1	0.0	-2.22300005	0.59799999	-1.96000004
         293	1	98	3	0.0	-3.11199999	1.55799997	-3.99799991
         294	1	98	4	0.0	-3.30800009	1.24899995	-1.09800005
         295	1	99	1	0.0	-2.22300005	-0.58399999	-5.56099987
         296	1	99	3	0.0	-4.14400005	-1.97599995	-5.07299995
         297	1	99	4	0.0	-1.10699999	-1.41199994	-6.22399998
         298	1	100	1	0.0	-5.55499983	-1.11300004	-7.34700012
         299	1	100	3	0.0	-4.62799978	-1.82299995	-9.42800045
         300	1	100	4	0.0	-6.40399981	0.146	-7.55499983
         301	1	101	1	0.0	-6.53700018	-3.86199999	-9.89000034
         302	1	101	3	0.0	-6.36499977	-3.273	-12.18900013
         303	1	101	4	0.0	-7.44299984	-5.00699997	-9.44699955
         304	1	102	1	0.0	-8.61299992	-1.47800004	-12.09500027
         305	1	102	3	0.0	-7.63600016	-0.484	-14.06900024
         306	1	102	4	0.0	-9.52999973	-0.40700001	-11.50599957
         307	1	103	1	0.0	-5.26000023	0.18000001	-12.65999985
         308	1	103	3	0.0	-4.49900007	2.39400005	-13.18999958
         309	1	103	5	0.0	-6.454	-0.16731394	-12.43101776
         310	1	104	1	0.0	-6.31699991	3.55299997	-11.39700031
         311	1	104	3	0.0	-5.00299978	3.0940001	-9.39400005
         312	1	104	4	0.0	-7.78399992	3.90199995	-11.07400036
         313	1	105	1	0.0	-4.24599981	5.81599998	-9.22399998
         314	1	105	3	0.0	-5.45599985	7.63800001	-8.25
         315	1	105	4	0.0	-3.25699997	6.83300018	-9.84599972
         316	1	106	1	0.0	-6.35500002	6.04400015	-6.07600021
         317	1	106	3	0.0	-4.66499996	7.65199995	-5.51399994
         318	1	106	4	0.0	-6.14699984	5.01300001	-4.98199987
         319	1	107	1	0.0	-6.55800009	9.51500034	-4.53399992
         320	1	107	3	0.0	-6.4460001	9.51200008	-2.09100008
         321	1	107	4	0.0	-7.84800005	10.34799957	-4.50199986
         322	1	108	1	0.0	-3.70700002	8.98900032	-2.07299995
         323	1	108	3	0.0	-2.6559999	10.39599991	-0.40599999
         324	1	108	4	0.0	-2.48200011	8.11999989	-2.37400007
         325	1	109	1	0.0	-3.31999993	12.75699997	-1.83099997
         326	1	109	3	0.0	-4.44899988	14.41600037	-0.52399999
         327	1	109	4	0.0	-2.89499998	13.56700039	-3.06999993
         328	1	110	1	0.0	-6.94799995	13.1590004	-0.662
         329	1	110	3	0.0	-7.25899982	11.57900047	1.11800003
         330	1	110	4	0.0	-8.12899971	12.57699966	-1.43200004
         331	1	111	1	0.0	-6.62099981	13.47200012	3.11999989
         332	1	111	3	0.0	-8.3380003	12.11800003	4.12400007
         333	1	111	4	0.0	-5.96600008	14.64299965	3.852
         334	1	112	1	0.0	-10.25599957	14.18099976	3.85299993
         335	1	112	3	0.0	-10.93799973	15.88700008	2.29900002
         336	1	112	4	0.0	-10.48400021	14.81799984	5.22300005
         337	1	113	1	0.0	-12.25199986	12.51599979	2.66400003
         338	1	113	3	0.0	-10.27000046	12.08899975	1.35099995
         339	1	113	4	0.0	-13.67599964	12.16399956	2.23699999
         340	1	114	1	0.0	-10.27900028	9.3380003	1.91400003
         341	1	114	3	0.0	-11.19699955	7.40600014	3.03699994
         342	1	114	4	0.0	-9.08399963	9.40999985	2.87400007
         343	1	115	1	0.0	-12.02499962	6.20699978	0.63499999
         344	1	115	3	0.0	-9.85900021	5.27400017	1.16400003
         345	1	115	4	0.0	-12.3210001	5.9289999	-0.852
         346	1	116	1	0.0	-10.97299957	2.90499997	2.21300006
         347	1	116	3	0.0	-10.14599991	2.49600005	-0.006
         348	1	116	4	0.0	-11.96800041	1.77499998	2.50500011
         349	1	117	1	0.0	-7.65199995	1.54799998	0.829
         350	1	117	3	0.0	-9.13599968	-0.27599999	0.26699999
         351	1	117	4	0.0	-6.41300011	1.55599999	1.73399997
         352	1	118	1	0.0	-7.04500008	-1.77100003	-0.97100002
         353	1	118	3	0.0	-5.4000001	-2.49799991	0.61199999
         354	1	118	5	0.0	-6.95699978	-2.22943952	-2.00812398
         355	1	119	1	0.0	-5.8210001	-5.24499989	0.154
         356	1	119	3	0.0	-3.44199991	-5.15999985	0.22499999
         357	1	119	4	0.0	-6.73400021	-6.45499992	-0.037
         358	1	120	1	0.0	-3.11199999	-5.88700008	-2.46300006
         359	1	120	3	0.0	-3.03800011	-3.5150001	-2.95900011
         360	1	120	4	0.0	-3.27200007	-6.59000015	-3.79999995
         361	1	121	1	0.0	-0.31999999	-3.36999989	-2.19899988
         362	1	121	3	0.0	1.54999995	-4.75199986	-2.79099989
         363	1	121	4	0.0	-0.105	-2.89299989	-0.75700003
         364	1	122	1	0.0	2.82599998	-2.66100001	-4.19099998
         365	1	122	3	0.0	3.86500001	-1.421	-2.39700007
         366	1	122	4	0.0	2.82599998	-1.73800004	-5.43100023
         367	1	123	1	0.0	6.21099997	-2.99399996	-2.4920001
         368	1	123	3	0.0	7.63500023	-3.38700008	-4.39900017
         369	1	123	4	0.0	6.45300007	-4.22800016	-1.61500001
         370	1	124	1	0.0	9.34000015	-1.23300004	-3.64899993
         371	1	124	3	0.0	9.72000027	0.17399999	-1.755
         372	1	124	4	0.0	8.85599995	-0.42699999	-4.86399984
         373	1	125	1	0.0	12.52000046	0.29899999	-2.22600007
         374	1	125	3	0.0	11.53899956	2.22099996	-3.28500009
         375	1	125	4	0.0	13.93299961	-0.28600001	-2.46600008
         376	1	126	1	0.0	13.56400013	4.00699997	-2.50999999
         377	1	126	3	0.0	15.71899986	4.01300001	-1.48300004
         378	1	126	4	0.0	12.53100014	4.69999981	-1.59300005
         379	1	127	1	0.0	14.65600014	6.04500008	-4.32600021
         380	1	127	3	0.0	13.84599972	5.29400015	-6.43499994
         381	1	127	4	0.0	15.22399998	7.43100023	-4.60900021
         382	1	128	1	0.0	15.53299999	2.96799994	-6.38399982
         383	1	128	3	0.0	13.95499992	2.56900001	-8.13399982
         384	1	128	4	0.0	16.1609993	1.73800004	-5.72300005
         385	1	129	1	0.0	11.8380003	1.96399999	-6.32800007
         386	1	129	3	0.0	10.91600037	0.46799999	-7.98000002
         387	1	129	4	0.0	11.08100033	3.08200002	-7.0619998
         388	1	130	1	0.0	13.04500008	-1.43200004	-7.60200024
         389	1	130	3	0.0	11.93200016	-2.9460001	-6.10900021
         390	1	130	4	0.0	14.40299988	-2.05599999	-7.21999979
         391	1	131	1	0.0	9.56900024	-2.954	-7.79099989
         392	1	131	3	0.0	10.53999996	-5.10900021	-8.1789999
         393	1	131	4	0.0	8.78800011	-2.85400009	-9.11900043
         394	1	132	1	0.0	9.86800003	-6.046	-5.63899994
         395	1	132	3	0.0	8.86999989	-7.83599997	-6.89900017
         396	1	132	4	0.0	10.10299969	-5.99700022	-4.12699986
         397	1	133	1	0.0	6.31099987	-7.31799984	-5.79699993
         398	1	133	3	0.0	5.0999999	-5.53800011	-4.74100018
         399	1	133	5	0.0	7.55499983	-7.9317915	-6.06133554
         400	1	134	1	0.0	2.7349999	-7.07999992	-4.61899996
         401	1	134	3	0.0	2.6329999	-9.26200008	-3.625
         402	1	134	4	0.0	1.63499999	-6.95499992	-5.68300009
         403	1	135	1	0.0	1.48899996	-8.29500008	-1.26100004
         404	1	135	3	0.0	-0.338	-6.76100016	-0.99900001
         405	1	135	4	0.0	2.46399999	-8.07699966	-0.106
         406	1	136	1	0.0	-2.08599997	-8.68799973	-0.008
         407	1	136	3	0.0	-1.81200004	-10.56000042	1.46500003
         408	1	136	4	0.0	-3.06399989	-9.12899971	-1.09200001
         409	1	137	1	0.0	-3.79099989	-9.70400047	3.19499993
         410	1	137	3	0.0	-5.95100021	-10.58399963	2.61500001
         411	1	137	4	0.0	-4.44299984	-8.69799995	4.11899996
         412	1	138	1	0.0	-5.04199982	-13.26299953	2.7420001
         413	1	138	3	0.0	-7.30299997	-13.97799969	3.09599996
         414	1	138	4	0.0	-4.22300005	-14.48200035	3.171
         415	1	139	1	0.0	-7.73699999	-12.26399994	5.25500011
         416	1	139	3	0.0	-7.77400017	-9.90499973	5.78499985
         417	1	139	4	0.0	-7.49800014	-12.65699959	6.71700001
         418	1	140	1	0.0	-9.54699993	-9.3380003	3.5710001
         419	1	140	3	0.0	-7.92299986	-8.26500034	2.18199992
         420	1	140	4	0.0	-10.55300045	-8.83600044	4.6170001
         421	1	141	1	0.0	-7.16099977	-6.38399982	4.1880002
         422	1	141	3	0.0	-6.16800022	-5.0250001	5.95300007
         423	1	141	4	0.0	-7.82399988	-5.11100006	3.64100003
         424	1	142	1	0.0	-5.70800018	-7.1880002	7.62599993
         425	1	142	3	0.0	-3.648	-8.11900043	8.38700008
         426	1	142	4	0.0	-6.82700014	-7.08400011	8.65600014
         427	1	143	1	0.0	-4.46700001	-10.80700016	7.78499985
         428	1	143	3	0.0	-2.74499989	-9.73400021	6.47700024
         429	1	143	5	0.0	-5.23899984	-11.39913919	7.78493135
         430	1	144	1	0.0	-0.77100003	-11.5369997	7.1869998
         431	1	144	3	0.0	-1.34599996	-12.00800037	4.88500023
         432	1	144	4	0.0	0.008	-12.80200005	7.56599998
         433	1	145	1	0.0	0.26899999	-9.89599991	3.92400002
         434	1	145	3	0.0	2.20099998	-11.30799961	3.66300011
         435	1	145	4	0.0	1.03199995	-8.56900024	3.8499999
         436	1	146	1	0.0	1.07000005	-12.79899979	1.63800001
         437	1	146	3	0.0	0.667	-11.68900013	-0.456
         438	1	146	4	0.0	0.131	-13.99400043	1.48599994
         439	1	147	1	0.0	3.43700004	-11.84500027	-1.18299997
         440	1	147	3	0.0	2.87400007	-13.82699966	-2.40799999
         441	1	147	4	0.0	4.95300007	-12.09700012	-1.11800003
         442	1	148	1	0.0	1.29499996	-12.35999966	-4.29300022
         443	1	148	3	0.0	3.55200005	-12.89099979	-5.0250001
         444	1	148	4	0.0	0.59899998	-11.22299957	-5.06099987
         445	1	149	1	0.0	2.68400002	-14.51099968	-7.07000017
         446	1	149	3	0.0	0.991	-14.30500031	-8.77499962
         447	1	149	4	0.0	2.76399994	-15.98900032	-6.67299986
         448	1	150	1	0.0	2.9000001	-14.00300026	-10.79699993
         449	1	150	3	0.0	2.95700002	-16.33399963	-11.22299957
         450	1	150	4	0.0	3.50600004	-12.67800045	-11.24199963

Bond Coeffs

           1	200.0	3.77
           2	200.0	2.41
           3	200.0	2.50
           4	200.0	1.54
           5	200.0	1.54
Bonds

           1	2	1	2
           2	4	1	3
           3	1	1	4
           4	3	2	4
           5	2	4	5
           6	4	4	6
           7	1	4	7
           8	3	5	7
           9	2	7	8
          10	4	7	9
          11	1	7	10
          12	3	8	10
          13	2	10	11
          14	4	10	12
          15	1	10	13
          16	3	11	13
          17	2	13	14
          18	4	13	15
          19	1	13	16
          20	3	14	16
          21	2	16	17
          22	4	16	18
          23	1	16	19
          24	3	17	19
          25	2	19	20
          26	4	19	21
          27	1	19	22
          28	3	20	22
          29	2	22	23
          30	4	22	24
          31	1	22	25
          32	3	23	25
          33	2	25	26
          34	4	25	27
          35	1	25	28
          36	3	26	28
          37	2	28	29
          38	4	28	30
          39	1	28	31
          40	3	29	31
          41	2	31	32
          42	4	31	33
          43	1	31	34
          44	3	32	34
          45	2	34	35
          46	4	34	36
          47	1	34	37
          48	3	35	37
          49	2	37	38
          50	4	37	39
          51	1	37	40
          52	3	38	40
          53	2	40	41
          54	4	40	42
          55	1	40	43
          56	3	41	43
          57	2	43	44
          58	4	43	45
          59	1	43	46
          60	3	44	46
          61	2	46	47
          62	4	46	48
          63	1	46	49
          64	3	47	49
          65	2	49	50
          66	4	49	51
          67	1	49	52
          68	3	50	52
          69	2	52	53
          70	4	52	54
          71	1	52	55
          72	3	53	55
          73	2	55	56
          74	4	55	57
          75	1	55	58
          76	3	56	58
          77	2	58	59
          78	4	58	60
          79	1	58	61
          80	3	59	61
          81	2	61	62
          82	4	61	63
          83	1	61	64
          84	3	62	64
          85	2	64	65
          86	4	64	66
          87	1	64	67
          88	3	65	67
          89	2	67	68
          90	4	67	69
          91	1	67	70
          92	3	68	70
          93	2	70	71
          94	4	70	72
          95	1	70	73
          96	3	71	73
          97	2	73	74
          98	4	73	75
          99	1	73	76
         100	3	74	76
         101	2	76	77
         102	4	76	78
         103	1	76	79
         104	3	77	79
         105	2	79	80
         106	4	79	81
         107	1	79	82
         108	3	80	82
         109	2	82	83
         110	4	82	84
         111	1	82	85
         112	3	83	85
         113	2	85	86
         114	4	85	87
         115	1	85	88
         116	3	86	88
         117	2	88	89
         118	4	88	90
         119	1	88	91
         120	3	89	91
         121	2	91	92
         122	4	91	93
         123	1	91	94
         124	3	92	94
         125	2	94	95
         126	4	94	96
         127	1	94	97
         128	3	95	97
         129	2	97	98
         130	4	97	99
         131	1	97	100
         132	3	98	100
         133	2	100	101
         134	4	100	102
         135	1	100	103
         136	3	101	103
         137	2	103	104
         138	4	103	105
         139	1	103	106
         140	3	104	106
         141	2	106	107
         142	4	106	108
         143	1	106	109
         144	3	107	109
         145	2	109	110