ITEM: TIMESTEP
0
ITEM: NUMBER OF ATOMS
450
ITEM: BOX BOUNDS ss ss ss
-26.029 20.75
-18.234 15.927
-18.688 19.771
ITEM: ATOMS id type xs ys zs
1 1 0.625238 0.303885 0.00104007
2 3 0.61083 0.239103 0.0193453
3 4 0.648411 0.334007 0.0102707
4 1 0.626862 0.25049 0.0886399
5 3 0.585818 0.287843 0.108349
6 4 0.652173 0.259565 0.112561
7 1 0.559546 0.219519 0.137809
8 3 0.565382 0.170721 0.18274
9 4 0.539858 0.194374 0.114564
10 1 0.567071 0.225842 0.2362
11 3 0.519507 0.243113 0.254661
12 4 0.580645 0.260472 0.255207
13 1 0.504671 0.166711 0.271198
14 3 0.528784 0.137672 0.320419
15 4 0.49317 0.13372 0.248264
16 1 0.484405 0.158543 0.366884
17 3 0.434939 0.142824 0.357264
18 4 0.487847 0.196042 0.38779
19 1 0.430214 0.0970112 0.416886
20 3 0.433036 0.102544 0.479394
21 4 0.436991 0.0531015 0.41829
22 1 0.388978 0.158485 0.482696
23 3 0.343103 0.129768 0.468837
24 4 0.386242 0.203126 0.479056
25 1 0.328673 0.121103 0.539302
26 3 0.31232 0.179913 0.566889
27 4 0.335535 0.098709 0.572662
28 1 0.262361 0.184011 0.525443
29 3 0.224844 0.136706 0.533451
30 4 0.254281 0.197623 0.488884
31 1 0.201885 0.177103 0.591539
32 3 0.165074 0.225872 0.582386
33 4 0.205135 0.190832 0.629242
34 1 0.140319 0.182782 0.528173
35 3 0.110092 0.162203 0.5743
36 4 0.13288 0.150288 0.502717
37 1 0.0773852 0.231229 0.577316
38 3 0.0339041 0.197008 0.590551
39 4 0.0735587 0.275695 0.575912
40 1 0.0229163 0.17681 0.520216
41 3 0.000855085 0.121864 0.549234
42 4 0.0250967 0.175639 0.480252
43 1 0.0506424 0.0767249 0.548194
44 3 0.0669959 0.0443488 0.599678
45 4 0.0700314 0.0537162 0.523285
46 1 0.0835845 0.117151 0.633402
47 3 0.117104 0.079301 0.668322
48 4 0.0611385 0.114399 0.662238
49 1 0.145685 0.0499107 0.608726
50 3 0.169969 0.0942595 0.569464
51 4 0.135702 0.0128217 0.589693
52 1 0.224396 0.0618542 0.587249
53 3 0.232818 0.00117093 0.556671
54 4 0.245965 0.0563216 0.616527
55 1 0.244682 0.039548 0.493383
56 3 0.281879 0.0873804 0.48683
57 4 0.22354 0.0504376 0.464365
58 1 0.319289 0.0360352 0.453756
59 3 0.320122 0.0216622 0.392314
60 4 0.338806 0.00134658 0.462727
61 1 0.317258 0.101607 0.374243
62 3 0.367879 0.112321 0.382199
63 4 0.300071 0.140218 0.373515
64 1 0.379166 0.115161 0.310278
65 3 0.371043 0.16794 0.269118
66 4 0.382586 0.0863558 0.280221
67 1 0.402039 0.221949 0.308848
68 3 0.452554 0.223149 0.296498
69 4 0.405802 0.245397 0.342495
70 1 0.44334 0.231638 0.224083
71 3 0.43107 0.299728 0.213734
72 4 0.43449 0.209157 0.191009
73 1 0.49007 0.322297 0.217712
74 3 0.529361 0.296069 0.184404
75 4 0.504414 0.334797 0.251463
76 1 0.531798 0.358772 0.140331
77 3 0.554736 0.41521 0.165293
78 4 0.518117 0.381956 0.110611
79 1 0.609226 0.381166 0.166671
80 3 0.620171 0.448962 0.167971
81 4 0.635563 0.35681 0.157258
82 1 0.60991 0.460232 0.0959463
83 3 0.608393 0.522643 0.122676
84 4 0.598196 0.456076 0.0588679
85 1 0.553047 0.511343 0.150758
86 3 0.567327 0.55335 0.196625
87 4 0.522927 0.495155 0.153826
88 1 0.592061 0.492931 0.236772
89 3 0.619787 0.55016 0.245742
90 4 0.598025 0.451948 0.250501
91 1 0.665042 0.525599 0.200135
92 3 0.67774 0.589971 0.183
93 4 0.684046 0.501449 0.175408
94 1 0.622737 0.611282 0.159053
95 3 0.620877 0.670941 0.191971
96 4 0.59997 0.606423 0.130971
97 1 0.579213 0.642604 0.239086
98 3 0.602877 0.690407 0.275462
99 4 0.558969 0.615029 0.258275
100 1 0.648432 0.638945 0.290569
101 3 0.67712 0.695559 0.290543
102 4 0.66547 0.601827 0.299176
103 1 0.682977 0.700419 0.218024
104 3 0.671477 0.760429 0.18703
105 4 0.692683 0.681772 0.183468
106 1 0.626734 0.779954 0.233417
107 3 0.629043 0.835426 0.272238
108 4 0.596806 0.768274 0.220521
109 1 0.622138 0.789028 0.332172
110 3 0.673486 0.789204 0.33147
111 4 0.613673 0.75472 0.355495
112 1 0.679258 0.85059 0.379417
113 3 0.67913 0.799362 0.422424
114 4 0.671028 0.889055 0.397124
115 1 0.738472 0.79784 0.428092
116 3 0.76421 0.836451 0.470761
117 4 0.766754 0.791136 0.409813
118 1 0.721071 0.82603 0.521074
119 3 0.675324 0.800328 0.537273
120 4 0.71282 0.869676 0.51967
121 1 0.697172 0.763941 0.597623
122 3 0.686825 0.81754 0.635846
123 4 0.717266 0.743889 0.623677
124 1 0.62652 0.805363 0.631452
125 3 0.640993 0.868739 0.652331
126 5 0.649415 0.781624 0.641088
127 1 0.630283 0.906092 0.588887
128 3 0.61611 0.948772 0.541122
129 4 0.662028 0.912707 0.580072
130 1 0.565168 0.908726 0.530617
131 3 0.532825 0.895231 0.577888
132 4 0.568674 0.878956 0.500975
133 1 0.484641 0.917011 0.538886
134 3 0.472883 0.878019 0.589433
135 5 0.514398 0.91654 0.535258
136 1 0.466983 0.809081 0.551184
137 3 0.490049 0.756477 0.581424
138 4 0.459202 0.781125 0.521698
139 1 0.542466 0.802816 0.593125
140 3 0.588277 0.79058 0.566291
141 4 0.538853 0.778168 0.626355
142 1 0.563843 0.734668 0.518864
143 3 0.5725 0.791429 0.484074
144 4 0.541354 0.710284 0.499753
145 1 0.617457 0.70481 0.492108
146 3 0.646209 0.731038 0.538938
147 4 0.638192 0.692954 0.463481
148 1 0.62977 0.673399 0.584831
149 3 0.654524 0.616288 0.563327
150 4 0.604951 0.663417 0.609532
151 1 0.696317 0.619976 0.615357
152 3 0.663246 0.577559 0.645935
153 4 0.716903 0.634905 0.643152
154 1 0.688514 0.510816 0.614525
155 3 0.734026 0.482656 0.629398
156 4 0.689861 0.489886 0.579682
157 1 0.716176 0.472117 0.700174
158 3 0.754356 0.427154 0.694402
159 4 0.696894 0.46395 0.731454
160 1 0.723658 0.375165 0.649601
161 3 0.75256 0.324317 0.676279
162 4 0.747878 0.382542 0.623287
163 1 0.725347 0.330757 0.740373
164 3 0.747194 0.34756 0.793624
165 5 0.718228 0.309386 0.740689
166 1 0.786998 0.400866 0.766037
167 3 0.746745 0.437751 0.787748
168 4 0.806516 0.422294 0.740243
169 1 0.77911 0.475894 0.838997
170 3 0.772377 0.545827 0.839049
171 4 0.793326 0.470273 0.874464
172 1 0.813891 0.557624 0.785382
173 3 0.855491 0.597611 0.794742
174 5 0.80425 0.586847 0.74903
175 1 0.892943 0.533181 0.792376
176 3 0.927254 0.503205 0.754934
177 4 0.900297 0.532479 0.831093
178 1 0.90438 0.426539 0.764502
179 3 0.891126 0.359211 0.771419
180 5 0.894162 0.420365 0.71946
181 1 0.881464 0.365856 0.84256
182 3 0.834691 0.392904 0.831145
183 4 0.890998 0.371798 0.880522
184 1 0.807243 0.321683 0.84646
185 3 0.81248 0.301279 0.905744
186 4 0.800851 0.287404 0.822018
187 1 0.755082 0.317321 0.924647
188 3 0.762287 0.247768 0.914246
189 4 0.727613 0.341881 0.923139
190 1 0.723658 0.225052 0.966796
191 3 0.684923 0.215655 0.925999
192 4 0.704034 0.226194 0.99896
193 1 0.71391 0.152923 0.892067
194 3 0.705894 0.186763 0.837515
195 5 0.724 0.143099 0.859525
196 1 0.764959 0.184918 0.820484
197 3 0.756964 0.127719 0.785434
198 4 0.797473 0.180118 0.822616
199 1 0.726309 0.16955 0.73434
200 3 0.707796 0.211879 0.688993
201 4 0.695718 0.15427 0.740841
202 1 0.760469 0.237083 0.665826
203 3 0.766412 0.186353 0.623469
204 4 0.791488 0.250461 0.669856
205 1 0.726608 0.218758 0.57716
206 3 0.766904 0.246656 0.54692
207 4 0.702944 0.243026 0.559115
208 1 0.787426 0.172682 0.526483
209 3 0.761624 0.150757 0.475519
210 4 0.800487 0.132988 0.535999
211 1 0.785224 0.211294 0.433683
212 3 0.800274 0.1764 0.382199
213 4 0.787426 0.255203 0.42635
214 1 0.857436 0.167999 0.406875
215 3 0.899143 0.189456 0.374971
216 5 0.83281 0.155273 0.402182
217 1 0.899763 0.263751 0.406459
218 3 0.907843 0.26059 0.468343
219 4 0.884243 0.300811 0.394706
220 1 0.961201 0.299289 0.463013
221 3 0.954595 0.344223 0.509192
222 4 0.992497 0.298176 0.45178
223 1 0.935206 0.406048 0.464989
224 3 0.900083 0.427886 0.506123
225 4 0.935548 0.434531 0.434125
226 1 0.857265 0.377067 0.481474
227 3 0.839351 0.364802 0.538834
228 4 0.837534 0.354908 0.456772
229 1 0.883644 0.311174 0.555397
230 3 0.908036 0.324961 0.609298
231 4 0.896428 0.27066 0.548636
232 1 0.93775 0.390094 0.582932
233 3 0.895915 0.413337 0.612834
234 4 0.952179 0.418606 0.557893
235 1 0.925522 0.450367 0.666294
236 3 0.9286 0.513949 0.640084
237 4 0.949742 0.455695 0.692426
238 1 0.870113 0.529873 0.643282
239 3 0.862567 0.563391 0.697704
240 4 0.838795 0.518047 0.640526
241 1 0.907095 0.617517 0.684235
242 3 0.890998 0.683118 0.669544
243 4 0.937002 0.631071 0.672872
244 1 0.836102 0.66977 0.699186
245 3 0.843733 0.689002 0.759094
246 4 0.808333 0.646644 0.703762
247 1 0.847966 0.769152 0.741803
248 3 0.798841 0.761541 0.758574
249 4 0.86541 0.800884 0.723264
250 1 0.789713 0.838881 0.777867
251 3 0.745783 0.810749 0.756858
252 4 0.795742 0.881649 0.787358
253 1 0.746638 0.85059 0.693544
254 3 0.750123 0.828694 0.63374
255 4 0.739114 0.891162 0.678957
256 1 0.792172 0.771347 0.648977
257 3 0.797003 0.783584 0.587535
258 5 0.777422 0.71733 0.635174
259 1 0.828192 0.853224 0.596531
260 3 0.850531 0.910395 0.623443
261 4 0.803566 0.879365 0.583739
262 1 0.904017 0.87515 0.625237
263 3 0.908741 0.916074 0.57417
264 5 0.877445 0.857739 0.647034
265 1 0.966737 0.894148 0.565381
266 3 0.970692 0.873833 0.505577
267 4 0.996088 0.904072 0.58067
268 1 0.967998 0.792102 0.523129
269 3 0.962056 0.722842 0.535817
270 4 0.999145 0.782735 0.513482
271 1 0.913166 0.733322 0.576068
272 3 0.902307 0.710137 0.51824
273 4 0.885419 0.750593 0.590447
274 1 0.904444 0.631305 0.536389
275 3 0.888689 0.56989 0.562599
276 4 0.932876 0.612072 0.525625
277 1 0.834028 0.597933 0.575184
278 3 0.810278 0.595855 0.519644
279 4 0.817247 0.624806 0.599808
280 1 0.781547 0.526243 0.534439
281 3 0.741957 0.547027 0.568658
282 4 0.779858 0.482187 0.541694
283 1 0.712948 0.581423 0.512052
284 3 0.696573 0.523199 0.48228
285 4 0.711281 0.618454 0.489352
286 1 0.638449 0.536518 0.502587
287 3 0.596806 0.577559 0.511298
288 4 0.630432 0.510963 0.533581
289 1 0.587293 0.587512 0.441093
290 3 0.565767 0.528292 0.420578
291 4 0.598068 0.606803 0.407629
292 1 0.508904 0.551272 0.434957
293 3 0.489899 0.579374 0.381965
294 4 0.485709 0.570329 0.45737
295 1 0.508904 0.516671 0.341325
296 3 0.467838 0.475923 0.354013
297 4 0.53276 0.492433 0.324085
298 1 0.437675 0.501186 0.294885
299 3 0.457492 0.480402 0.240776
300 4 0.419526 0.53804 0.289477
301 1 0.416683 0.420714 0.228763
302 3 0.42036 0.437956 0.168985
303 4 0.397315 0.387196 0.240282
304 1 0.372304 0.490501 0.171429
305 3 0.393189 0.519598 0.120102
306 4 0.352701 0.521852 0.186744
307 1 0.443981 0.539036 0.156738
308 3 0.460249 0.603846 0.142957
309 5 0.418457 0.528869 0.162692
310 1 0.421386 0.637774 0.189579
311 3 0.449475 0.624338 0.24166
312 4 0.390025 0.64799 0.197977
313 1 0.465658 0.704019 0.24608
314 3 0.439791 0.757355 0.271406
315 4 0.4868 0.73379 0.229907
316 1 0.420573 0.710693 0.327934
317 3 0.456701 0.757765 0.342547
318 4 0.42502 0.680513 0.35638
319 1 0.416234 0.812301 0.368028
320 3 0.418628 0.812213 0.43155
321 4 0.388657 0.836685 0.36886
322 1 0.47718 0.796903 0.432019
323 3 0.499647 0.83809 0.475363
324 4 0.503367 0.771465 0.424192
325 1 0.485453 0.907204 0.438311
326 3 0.461318 0.955768 0.472295
327 4 0.494538 0.930915 0.406095
328 1 0.407897 0.918972 0.468707
329 3 0.401248 0.87272 0.51499
330 4 0.38265 0.901935 0.448686
331 1 0.414887 0.928134 0.567045
332 3 0.378183 0.888499 0.593151
333 4 0.428889 0.962413 0.586079
334 1 0.337181 0.948889 0.586105
335 3 0.322602 0.998829 0.545698
336 4 0.332307 0.967536 0.621727
337 1 0.294513 0.900149 0.555189
338 3 0.336882 0.88765 0.521048
339 4 0.264072 0.889845 0.544086
340 1 0.33669 0.807119 0.535687
341 3 0.317065 0.750564 0.564887
342 4 0.362235 0.809227 0.560649
343 1 0.299365 0.715465 0.502431
344 3 0.345668 0.688153 0.516186
345 4 0.293037 0.707327 0.463767
346 1 0.321854 0.618805 0.543462
347 3 0.339533 0.606832 0.485764
348 4 0.300584 0.585726 0.551054
349 1 0.392847 0.579081 0.507475
350 3 0.361124 0.525687 0.492863
351 4 0.419333 0.579316 0.531007
352 1 0.405823 0.481924 0.460672
353 3 0.440988 0.460642 0.501833
354 5 0.407704 0.468504 0.433705
355 1 0.431989 0.380229 0.489924
356 3 0.482845 0.382717 0.49177
357 4 0.412471 0.344808 0.484958
358 1 0.489899 0.361436 0.421878
359 3 0.491481 0.430871 0.408981
360 4 0.486479 0.340857 0.387114
361 1 0.549584 0.435116 0.428742
362 3 0.589559 0.394661 0.413349
363 4 0.55418 0.449079 0.466237
364 1 0.616837 0.455871 0.376947
365 3 0.639047 0.492169 0.423594
366 4 0.616837 0.48289 0.344705
367 1 0.689198 0.446123 0.421124
368 3 0.719639 0.434618 0.371539
369 4 0.694371 0.41 0.443927
370 1 0.756087 0.497673 0.39104
371 3 0.76421 0.53886 0.440287
372 4 0.745741 0.521267 0.359448
373 1 0.824066 0.542519 0.42804
374 3 0.803095 0.598782 0.400504
375 4 0.854272 0.525394 0.4218
376 1 0.846384 0.651064 0.420656
377 3 0.892452 0.65124 0.44736
378 4 0.824302 0.67135 0.444499
379 1 0.869728 0.710723 0.373437
380 3 0.852412 0.688739 0.318599
381 4 0.88187 0.751295 0.366078
382 1 0.888476 0.620649 0.319925
383 3 0.854743 0.608969 0.274422
384 4 0.9019 0.584643 0.337112
385 1 0.809487 0.591259 0.321381
386 3 0.789777 0.547466 0.278426
387 4 0.793305 0.623986 0.302296
388 1 0.835289 0.491847 0.288255
389 3 0.811497 0.447528 0.327076
390 4 0.864319 0.473581 0.298188
391 1 0.760983 0.447294 0.283341
392 3 0.78174 0.38421 0.273252
393 4 0.744287 0.450221 0.24881
394 1 0.767374 0.356781 0.339296
395 3 0.74604 0.304382 0.306534
396 4 0.772398 0.358216 0.378611
397 1 0.691336 0.319546 0.335188
398 3 0.665448 0.371652 0.362646
399 5 0.717929 0.301578 0.328315
400 1 0.614891 0.326513 0.365818
401 3 0.612711 0.262639 0.391664
402 4 0.591376 0.330172 0.338152
403 1 0.588255 0.290946 0.453132
404 3 0.549199 0.335851 0.459944
405 4 0.609098 0.297327 0.483164
406 1 0.511832 0.279441 0.485712
407 3 0.51769 0.224642 0.524013
408 4 0.490925 0.266532 0.457526
409 1 0.475384 0.2497 0.568996
410 3 0.42921 0.22394 0.553915
411 4 0.461446 0.279149 0.593021
412 1 0.448642 0.145517 0.557217
413 3 0.400308 0.124587 0.566421
414 4 0.466149 0.109833 0.568372
415 1 0.39103 0.174761 0.622559
416 3 0.390239 0.243816 0.63634
417 4 0.396139 0.163256 0.660574
418 1 0.352338 0.260414 0.578772
419 3 0.387054 0.291824 0.542656
420 4 0.330832 0.275109 0.60597
421 1 0.403343 0.346887 0.594815
422 3 0.424571 0.386669 0.640708
423 4 0.38917 0.384152 0.580592
424 1 0.434404 0.323351 0.684209
425 3 0.478441 0.296098 0.703996
426 4 0.410483 0.326396 0.710991
427 1 0.460933 0.217412 0.688343
428 3 0.497745 0.248822 0.654333
429 5 0.44443 0.200078 0.688342
430 1 0.539943 0.196042 0.672794
431 3 0.527651 0.182255 0.612938
432 4 0.556596 0.159012 0.682649
433 1 0.562175 0.24408 0.587951
434 3 0.603476 0.202746 0.581164
435 4 0.578486 0.282925 0.586027
436 1 0.579298 0.1591 0.528511
437 3 0.570683 0.191593 0.474063
438 4 0.559225 0.124118 0.524559
439 1 0.629898 0.187026 0.45516
440 3 0.617863 0.129007 0.423308
441 4 0.662306 0.179649 0.45685
442 1 0.584108 0.17195 0.374295
443 3 0.632356 0.156406 0.355261
444 4 0.56923 0.205234 0.354325
445 1 0.613801 0.108984 0.302088
446 3 0.57761 0.115014 0.257755
447 4 0.615511 0.0657182 0.312411
448 1 0.618419 0.123855 0.20518
449 3 0.619637 0.055619 0.194103
450 4 0.631373 0.162642 0.193609
