LAMMPS protain data file

         324  atoms
         430  bonds
           0  angles
           0  dihedrals
           0  impropers

           5  atom types
           5  bond types
           0  angle types
           0  dihedral types
           0  improper types

-200.0	200.0	xlo xhi
-200.0	200.0	ylo yhi
-200.0	200.0	zlo zhi

Masses

           1	27.0
           2	14.0
           3	28.0
           4	60.0
           5	60.0

Atoms

           1	1	1	1	0.0	16.59300041	24.77899933	39.36500168
           2	1	1	3	0.0	18.59600067	23.55900002	38.94400024
           3	1	1	4	0.0	15.48999977	23.94799995	38.70000076
           4	1	2	1	0.0	18.59700012	22.37400055	41.49100113
           5	1	2	3	0.0	16.60700035	21.5510006	42.52099991
           6	1	2	4	0.0	19.5720005	23.08300018	42.44499969
           7	1	3	1	0.0	17.67200089	19.10700035	43.20000076
           8	1	3	3	0.0	18.65299988	20.04999924	45.19499969
           9	1	3	4	0.0	18.45499992	17.84600067	43.16400146
          10	1	4	1	0.0	16.35099983	20.30900002	46.56200027
          11	1	4	3	0.0	17.01399994	18.23399925	47.59999847
          12	1	4	4	0.0	14.85599995	20.56800079	46.72900009
          13	1	5	1	0.0	18.0	19.54299927	49.95899963
          14	1	5	3	0.0	18.16500092	21.45700073	51.40599823
          15	1	5	4	0.0	19.52000046	19.48900032	49.9070015
          16	1	6	1	0.0	15.94499969	20.71100044	52.94900131
          17	1	6	3	0.0	14.54599953	18.81999969	53.51699829
          18	1	6	4	0.0	14.87300014	21.66300011	52.49399948
          19	1	7	1	0.0	15.43400002	18.85400009	56.25299835
          20	1	7	3	0.0	15.48099995	20.70199966	57.78099823
          21	1	7	4	0.0	16.64100075	17.95899963	56.51499939
          22	1	8	1	0.0	13.92599964	19.28300095	59.78099823
          23	1	8	3	0.0	13.82299995	16.96299934	60.47200012
          24	1	8	4	0.0	12.40100002	19.62800026	60.08000183
          25	1	9	1	0.0	15.5170002	17.31100082	62.57099915
          26	1	9	3	0.0	14.9090004	18.82699966	64.32700348
          27	1	9	4	0.0	17.03499985	17.20499992	62.63899994
          28	1	10	1	0.0	13.79599953	16.86700058	65.94100189
          29	1	10	3	0.0	14.5	14.63399982	66.49099731
          30	1	10	4	0.0	12.2489996	16.84199905	65.94200134
          31	1	11	1	0.0	15.04899979	15.19900036	69.14700317
          32	1	11	3	0.0	13.76200008	16.45800018	70.71700287
          33	1	11	4	0.0	16.54500008	15.4289999	69.4960022
          34	1	12	1	0.0	13.10299969	14.2510004	72.24700165
          35	1	12	3	0.0	13.80000019	11.99699974	72.45999908
          36	1	12	5	0.0	13.90400028	14.13603552	68.30333201
          37	1	13	1	0.0	13.57900047	11.89500046	75.19000244
          38	1	13	3	0.0	11.25399971	11.42399979	75.20300293
          39	1	13	4	0.0	13.73799992	12.28299999	76.65399933
          40	1	14	1	0.0	11.58100033	8.78999996	74.44499969
          41	1	14	3	0.0	13.28100014	7.42500019	73.41200256
          42	1	14	5	0.0	12.65100002	8.06399543	70.01153828
          43	1	15	1	0.0	11.64400005	5.6420002	72.3690033
          44	1	15	3	0.0	11.28899956	4.57800007	70.22599792
          45	1	15	4	0.0	11.63599968	4.38500023	73.28600311
          46	1	16	1	0.0	9.18200016	6.21199989	69.4940033
          47	1	16	3	0.0	8.24499989	8.2510004	70.31099701
          48	1	16	4	0.0	8.12699986	5.11600018	69.5759964
          49	1	17	1	0.0	7.54400015	9.20499992	67.79000092
          50	1	17	3	0.0	5.81699991	10.56900024	68.73400116
          51	1	17	4	0.0	7.36000013	9.36699963	66.31199646
          52	1	18	1	0.0	4.33199978	8.39099979	69.64199829
          53	1	18	3	0.0	3.77999997	9.42800045	71.72100067
          54	1	18	4	0.0	3.55999994	7.03700018	69.54199982
          55	1	19	1	0.0	6.09000015	8.45699978	73.05500031
          56	1	19	3	0.0	7.78399992	9.41800022	74.45400238
          57	1	19	4	0.0	6.48799992	7.12099981	73.7460022
          58	1	20	1	0.0	8.78800011	11.12199974	72.58999634
          59	1	20	3	0.0	8.38599968	12.64400005	70.8259964
          60	1	20	4	0.0	10.0710001	10.60000038	71.93099976
          61	1	21	1	0.0	7.73799992	14.74400043	72.49099731
          62	1	21	3	0.0	10.08399963	15.2869997	72.31199646
          63	1	21	4	0.0	7.21099997	15.49800014	73.6740036
          64	1	22	1	0.0	9.81400013	16.99200058	70.15200043
          65	1	22	3	0.0	9.55300045	19.16900063	71.04100037
          66	1	22	4	0.0	9.18299961	17.49099922	68.85199738
          67	1	23	1	0.0	11.85299969	19.09499931	72.56500244
          68	1	23	3	0.0	12.42099953	21.36599922	72.04199982
          69	1	23	4	0.0	12.76900005	18.54500008	73.65399933
          70	1	24	1	0.0	14.26799965	20.6590004	70.09999847
          71	1	24	3	0.0	13.82499981	19.12400055	68.3030014
          72	1	24	4	0.0	15.73900032	20.53100014	70.46800232
          73	1	25	1	0.0	13.95600033	21.05999947	66.30400085
          74	1	25	3	0.0	14.57600021	23.28499985	65.65899658
          75	1	25	4	0.0	12.47700024	21.16500092	65.97499847
          76	1	26	1	0.0	16.34199905	22.50900078	63.69100189
          77	1	26	3	0.0	16.08099937	21.06999969	61.76300049
          78	1	26	4	0.0	17.83399963	22.41799927	63.9620018
          79	1	27	1	0.0	15.93000031	23.09900093	59.93700027
          80	1	27	3	0.0	18.26399994	23.6989994	59.96500015
          81	1	27	4	0.0	15.07400036	24.2140007	59.25400162
          82	1	28	1	0.0	18.86700058	22.34700012	57.60100174
          83	1	28	3	0.0	18.00099945	21.53700066	55.51100159
          84	1	28	4	0.0	19.57699966	21.06999969	58.0
          85	1	29	1	0.0	19.38299942	23.41600037	53.98300171
          86	1	29	3	0.0	21.75699997	23.78700066	54.00099945
          87	1	29	4	0.0	18.81599998	24.80500031	53.57099915
          88	1	30	1	0.0	22.26600075	22.17300034	51.8219986
          89	1	30	3	0.0	23.46500015	22.28899956	49.72399902
          90	1	30	4	0.0	22.69400024	20.73699951	52.09000015
          91	1	31	1	0.0	21.38199997	23.4109993	48.30599976
          92	1	31	3	0.0	19.41799927	24.70100021	48.60699844
          93	1	31	4	0.0	20.80500031	22.27499962	47.45100021
          94	1	32	1	0.0	22.41900063	25.69000053	46.82099915
          95	1	32	3	0.0	24.72200012	25.56500053	47.49599838
          96	1	32	4	0.0	22.33600044	26.89999962	45.88999939
          97	1	33	1	0.0	24.2670002	26.36400032	50.04899979
          98	1	33	3	0.0	22.50900078	26.01399994	51.61299896
          99	1	33	5	0.0	23.23699951	25.03402198	46.97324484
         100	1	34	1	0.0	24.27400017	25.33799934	53.7480011
         101	1	34	3	0.0	24.39999962	27.54500008	54.65800095
         102	1	34	4	0.0	25.6079998	24.8579998	54.31399918
         103	1	35	1	0.0	21.90500069	27.36700058	55.89899826
         104	1	35	3	0.0	20.65299988	25.47500038	56.64899826
         105	1	35	4	0.0	21.34399986	28.5189991	55.06200027
         106	1	36	1	0.0	19.12100029	26.9470005	58.48400116
         107	1	36	3	0.0	20.4090004	27.77899933	60.3409996
         108	1	36	5	0.0	20.16799927	24.57357619	54.67448932
         109	1	37	1	0.0	18.5890007	27.02700043	62.27199936
         110	1	37	3	0.0	20.08399963	26.36000061	64.01999664
         111	1	37	4	0.0	17.25399971	26.91200066	63.06100082
         112	1	38	1	0.0	21.02899933	24.15800095	62.67900085
         113	1	38	3	0.0	22.79400063	25.76499939	62.32300186
         114	1	38	4	0.0	21.33799934	23.14800072	61.5719986
         115	1	39	1	0.0	24.04400063	25.26600075	64.85800171
         116	1	39	3	0.0	26.14900017	26.02799988	63.98600006
         117	1	39	4	0.0	24.27899933	24.45400047	66.12599945
         118	1	40	1	0.0	26.46800041	23.87599945	62.2820015
         119	1	40	3	0.0	26.20999908	22.28499985	60.45500183
         120	1	40	4	0.0	27.45100021	22.87700081	62.86199951
         121	1	41	1	0.0	24.70000076	24.07699966	58.90000153
         122	1	41	3	0.0	25.60000038	22.5340004	57.30199814
         123	1	41	4	0.0	24.05200005	25.33200073	58.37400055
         124	1	42	1	0.0	27.96899986	23.84900093	56.98799896
         125	1	42	3	0.0	28.35499954	21.59700012	56.30099869
         126	1	42	5	0.0	26.8920002	22.82401157	52.39896195
         127	1	43	1	0.0	29.55400085	20.80500031	58.64599991
         128	1	43	3	0.0	28.72599983	18.64299965	58.01499939
         129	1	43	4	0.0	30.20800018	20.77000046	60.01599884
         130	1	44	1	0.0	26.18700027	19.06399918	58.98400116
         131	1	44	3	0.0	26.17000008	17.57299995	57.08599854
         132	1	44	4	0.0	24.89599991	19.65600014	59.5719986
         133	1	45	1	0.0	25.70899963	19.55699921	55.19400024
         134	1	45	3	0.0	26.56100082	17.74399948	53.89899826
         135	1	45	4	0.0	25.72900009	20.87700081	54.4469986
         136	1	46	1	0.0	29.18899918	18.1420002	54.64300156
         137	1	46	3	0.0	29.55800056	15.78100014	54.42599869
         138	1	46	4	0.0	30.49200058	18.78700066	55.07500076
         139	1	47	1	0.0	28.4489994	15.18299961	56.88399887
         140	1	47	3	0.0	27.74200058	13.18599987	55.73799896
         141	1	47	4	0.0	27.90399933	15.28100014	58.31399918
         142	1	48	1	0.0	25.39299965	14.27499962	54.88100052
         143	1	48	3	0.0	25.81299973	12.82699966	53.01499939
         144	1	48	4	0.0	24.11100006	15.10200024	54.81600189
         145	1	49	1	0.0	27.01000023	14.81499958	51.47700119
         146	1	49	3	0.0	27.79899979	12.75199986	50.60900116
         147	1	49	4	0.0	27.70199966	16.07699966	51.04499817
         148	1	50	1	0.0	29.90800095	12.57800007	52.33599854
         149	1	50	3	0.0	29.70400047	10.28800011	51.71300125
         150	1	50	4	0.0	30.82799911	12.75500011	53.50799942
         151	1	51	1	0.0	27.56999969	9.75300026	53.28099823
         152	1	51	3	0.0	25.79000092	8.51000023	52.23600006
         153	1	51	4	0.0	27.00200081	9.5880003	54.72100067
         154	1	52	1	0.0	25.42300034	10.3739996	50.23600006
         155	1	52	3	0.0	23.09499931	9.99400043	50.04499817
         156	1	52	5	0.0	26.38299942	9.50601603	45.74321228
         157	1	53	1	0.0	22.45899963	11.57499981	52.26300049
         158	1	53	3	0.0	20.83200073	10.45499992	53.61600113
         159	1	53	5	0.0	23.78899956	11.8105024	48.9520515
         160	1	54	1	0.0	22.28199959	8.11400032	53.79499817
         161	1	54	3	0.0	23.65200043	7.92600012	55.75099945
         162	1	54	4	0.0	23.00900078	6.88899994	53.25999832
         163	1	55	1	0.0	21.62199974	8.90100002	57.45700073
         164	1	55	3	0.0	23.12100029	7.71000004	58.91899872
         165	1	55	4	0.0	20.24200058	9.22500038	58.03300095
         166	1	56	1	0.0	21.96500015	5.23699999	58.38199997
         167	1	56	3	0.0	23.87800026	3.97000003	58.97999954
         168	1	56	4	0.0	21.10099983	4.11000013	57.83000183
         169	1	57	1	0.0	25.58699989	5.19199991	57.19400024
         170	1	57	3	0.0	27.75099945	6.08400011	57.68600082
         171	1	57	4	0.0	25.91399956	5.13199997	55.72900009
         172	1	58	1	0.0	26.81800079	7.99100018	59.46300125
         173	1	58	3	0.0	26.83600044	6.46500015	61.31900024
         174	1	58	4	0.0	25.93600082	9.0880003	60.07600021
         175	1	59	1	0.0	29.56399918	6.42999983	61.61399841
         176	1	59	3	0.0	29.6989994	8.25699997	63.18700027
         177	1	59	4	0.0	30.96800041	5.97399998	61.12799835
         178	1	60	1	0.0	30.16500092	6.44500017	65.35399628
         179	1	60	3	0.0	32.44400024	5.671	65.33300018
         180	1	60	4	0.0	29.58600044	5.31599998	66.20200348
         181	1	61	1	0.0	33.48099899	8.09200001	66.2519989
         182	1	61	3	0.0	33.92699814	7.25099993	68.44799805
         183	1	61	5	0.0	32.07699966	8.44307864	61.65795718
         184	1	62	1	0.0	35.67699814	5.23400021	67.51200104
         185	1	62	3	0.0	36.24599838	5.06599998	69.8259964
         186	1	62	4	0.0	36.74000168	4.52099991	66.66500092
         187	1	63	1	0.0	37.52799988	7.50099993	69.93299866
         188	1	63	3	0.0	36.79100037	8.19999981	72.10299683
         189	1	63	4	0.0	38.66799927	8.47200012	69.5510025
         190	1	64	1	0.0	34.40299988	9.32699966	71.21900177
         191	1	64	3	0.0	33.52399826	7.22599983	72.03600311
         192	1	64	4	0.0	33.20399857	9.84899998	70.37599945
         193	1	65	1	0.0	33.68000031	7.98000002	74.70999908
         194	1	65	3	0.0	32.50500107	9.81299973	75.71199799
         195	1	65	4	0.0	34.86899948	7.85599995	75.65000153
         196	1	66	1	0.0	30.25499916	8.23799992	76.33399963
         197	1	66	3	0.0	30.32900047	6.24800014	77.61699677
         198	1	66	4	0.0	29.05400085	8.00500011	75.41300201
         199	1	67	1	0.0	29.15399933	7.39799976	79.91000366
         200	1	67	3	0.0	27.21299934	6.5710001	78.76499939
         201	1	67	4	0.0	28.63500023	8.54399967	80.77400208
         202	1	68	1	0.0	27.04400063	4.23600006	80.19300079
         203	1	68	3	0.0	25.25200081	3.77399993	81.71499634
         204	1	68	4	0.0	27.57099915	2.86599994	80.63600159
         205	1	69	1	0.0	23.68199921	5.86800003	80.89499664
         206	1	69	3	0.0	22.99699974	4.91099977	78.8259964
         207	1	69	4	0.0	23.45700073	7.38800001	80.88500214
         208	1	70	1	0.0	20.40600014	4.52899981	79.52400208
         209	1	70	3	0.0	18.33699989	5.32200003	80.44400024
         210	1	70	4	0.0	19.94300079	3.1099999	79.81700134
         211	1	71	1	0.0	18.36899948	7.68100023	78.93000031
         212	1	71	3	0.0	18.64299965	8.85599995	76.82099915
         213	1	71	4	0.0	19.09300041	8.86900043	79.56900024
         214	1	72	1	0.0	16.91900063	7.16800022	75.36100006
         215	1	72	3	0.0	15.81700039	9.28899956	75.54699707
         216	1	72	4	0.0	15.82600021	6.12400007	75.18699646
         217	1	73	1	0.0	16.48699951	9.97599983	72.8710022
         218	1	73	3	0.0	16.82500076	8.83899975	70.75700378
         219	1	73	4	0.0	17.72900009	10.91699982	72.91300201
         220	1	74	1	0.0	14.48499966	9.75800037	69.6309967
         221	1	74	3	0.0	14.58699989	12.06200027	68.93000031
         222	1	74	4	0.0	12.95800018	9.57699966	69.55899811
         223	1	75	1	0.0	15.98499966	11.46899986	66.59899902
         224	1	75	3	0.0	15.0539999	10.10200024	64.90699768
         225	1	75	4	0.0	17.45599937	11.30200005	66.22200012
         226	1	76	1	0.0	13.78800011	12.19299984	63.57099915
         227	1	76	3	0.0	14.88199997	14.25599957	62.94200134
         228	1	76	4	0.0	12.31000042	12.49699974	63.70500183
         229	1	77	1	0.0	14.7510004	13.66600037	60.15399933
         230	1	77	3	0.0	13.54899979	12.39000034	58.50600052
         231	1	77	4	0.0	16.14900017	13.25800037	59.63700104
         232	1	78	1	0.0	12.26799965	14.59000015	57.41699982
         233	1	78	3	0.0	13.25399971	16.63899994	56.70399857
         234	1	78	4	0.0	10.8579998	14.78999996	57.95000076
         235	1	79	1	0.0	12.32499981	16.45499992	54.1230011
         236	1	79	3	0.0	12.56499958	14.69699955	52.50799942
         237	1	79	5	0.0	12.0909996	16.70884778	50.47903478
         238	1	80	1	0.0	14.28199959	16.14299965	50.88299942
         239	1	80	3	0.0	16.35099983	17.25499916	51.24399948
         240	1	80	4	0.0	13.72200012	16.95700073	49.69800186
         241	1	81	1	0.0	17.89999962	15.19900036	50.22000122
         242	1	81	3	0.0	18.02199936	13.87300014	48.23199844
         243	1	81	4	0.0	18.63599968	14.1260004	51.01200104
         244	1	82	1	0.0	18.99500084	15.97299957	46.63800049
         245	1	82	3	0.0	17.97400093	14.43000031	45.09799957
         246	1	82	4	0.0	20.26499939	15.15200043	46.37400055
         247	1	83	1	0.0	15.52000046	15.65100002	45.16699982
         248	1	83	3	0.0	13.78499985	14.01799965	45.03300095
         249	1	83	5	0.0	16.67700005	15.05231305	41.29800434
         250	1	84	1	0.0	14.72500038	12.48900032	47.08100128
         251	1	84	3	0.0	14.79300022	13.25500011	49.36199951
         252	1	84	4	0.0	15.74800014	11.38099957	47.10900116
         253	1	85	1	0.0	12.21500015	12.37300014	49.97200012
         254	1	85	3	0.0	13.23499966	10.36100006	50.82400131
         255	1	85	4	0.0	10.73999977	12.00300026	49.85499954
         256	1	86	1	0.0	13.69099998	11.55700016	53.38399887
         257	1	86	3	0.0	11.84000015	12.30200005	54.7120018
         258	1	86	4	0.0	14.86800003	12.42300034	53.81800079
         259	1	87	1	0.0	11.85599995	10.12199974	56.41400146
         260	1	87	3	0.0	12.43700027	7.87200022	56.95800018
         261	1	87	4	0.0	10.4989996	9.61200047	55.96900177
         262	1	88	1	0.0	14.125	8.68400002	59.11800003
         263	1	88	3	0.0	13.63399982	10.1239996	61.00099945
         264	1	88	4	0.0	15.58199978	8.90299988	58.68899918
         265	1	89	1	0.0	14.03899956	8.19299984	62.8730011
         266	1	89	3	0.0	14.70300007	5.93900013	63.00999832
         267	1	89	4	0.0	12.59599972	8.24199963	63.34899902
         268	1	90	1	0.0	16.34900093	6.38700008	65.2519989
         269	1	90	3	0.0	16.40500069	7.89900017	67.11299896
         270	1	90	4	0.0	17.75300026	6.42799997	64.67199707
         271	1	91	1	0.0	16.45599937	5.94299984	69.03700256
         272	1	91	3	0.0	18.44300079	4.64400005	69.08499908
         273	1	91	4	0.0	15.4829998	5.03900003	69.87000275
         274	1	92	1	0.0	19.82500076	6.43900013	70.6780014
         275	1	92	3	0.0	18.7329998	6.43200016	72.82499695
         276	1	92	4	0.0	20.62800026	7.70200014	70.41500092
         277	1	93	1	0.0	20.78800011	5.1079998	74.14700317
         278	1	93	3	0.0	20.38999939	6.31699991	76.15399933
         279	1	93	4	0.0	21.94599915	4.15500021	74.46800232
         280	1	94	1	0.0	21.57099915	8.66600037	75.21499634
         281	1	94	3	0.0	22.77300072	9.46000004	73.29799652
         282	1	94	4	0.0	22.50799942	8.46100044	76.43499756
         283	1	95	1	0.0	22.28700066	12.13300037	73.69400024
         284	1	95	3	0.0	24.12199974	12.32199955	72.14900208
         285	1	95	4	0.0	21.99900055	13.50500011	74.3219986
         286	1	96	1	0.0	26.06599998	11.63399982	73.96399689
         287	1	96	3	0.0	27.32099915	10.82699966	72.10800171
         288	1	96	4	0.0	26.8029995	11.15699959	75.22299957
         289	1	97	1	0.0	25.59600067	8.64000034	71.73100281
         290	1	97	3	0.0	25.67499924	8.95199966	69.33699799
         291	1	97	4	0.0	24.74399948	7.44799995	72.13300323
         292	1	98	1	0.0	23.39800072	10.5170002	69.27899933
         293	1	98	3	0.0	24.75200081	11.36400032	67.4960022
         294	1	98	4	0.0	22.13999939	11.30200005	69.63500214
         295	1	99	1	0.0	25.89999962	13.36600018	69.08499908
         296	1	99	3	0.0	28.11599922	13.49400043	68.22399902
         297	1	99	4	0.0	26.13500023	14.40999985	70.20300293
         298	1	100	1	0.0	28.60899925	10.76200008	68.41100311
         299	1	100	3	0.0	29.49900055	9.52999973	66.57900238
         300	1	100	4	0.0	28.96999931	9.69900036	69.43199921
         301	1	101	1	0.0	27.16900063	9.66499996	65.07499695
         302	1	101	3	0.0	26.37999916	11.68400002	64.00900269
         303	1	101	4	0.0	25.80699921	8.98499966	64.95300293
         304	1	102	1	0.0	28.63199997	12.01000023	62.49499893
         305	1	102	3	0.0	28.32799911	13.56299973	64.3030014
         306	1	102	5	0.0	28.4090004	11.547348	57.13138909
         307	1	103	1	0.0	30.59300041	14.99300003	63.72800064
         308	1	103	3	0.0	29.52899933	16.40999985	65.3259964
         309	1	103	4	0.0	31.74399948	15.64900017	62.97499847
         310	1	104	1	0.0	27.84499931	17.66300011	63.54700089
         311	1	104	3	0.0	25.62599945	18.53499985	63.28699875
         312	1	104	4	0.0	28.4489994	18.99300003	63.10599899
         313	1	105	1	0.0	24.67700005	16.37000084	61.81999969
         314	1	105	3	0.0	22.80699921	17.34900093	63.0
         315	1	105	4	0.0	24.45400047	14.97000027	61.17699814
         316	1	106	1	0.0	22.92499924	15.47000027	65.08000183
         317	1	106	3	0.0	22.63299942	16.27899933	67.29799652
         318	1	106	4	0.0	22.76499939	14.00199986	65.44499969
         319	1	107	1	0.0	24.8920002	17.74799919	67.38300323
         320	1	107	3	0.0	24.76000023	20.09799957	66.92900085
         321	1	107	4	0.0	26.39900017	17.93099976	67.3809967
         322	1	108	1	0.0	22.13999939	20.31900024	67.92500305
         323	1	108	3	0.0	20.41200066	21.0739994	69.4489975
         324	1	108	4	0.0	21.30699921	20.5189991	66.63600159

Bond Coeffs

           1	200.0	3.77
           2	200.0	2.41
           3	200.0	2.50
           4	200.0	1.54
           5	200.0	1.54
Bonds

           1	2	1	2
           2	4	1	3
           3	1	1	4
           4	3	2	4
           5	2	4	5
           6	4	4	6
           7	1	4	7
           8	3	5	7
           9	2	7	8
          10	4	7	9
          11	1	7	10
          12	3	8	10
          13	2	10	11
          14	4	10	12
          15	1	10	13
          16	3	11	13
          17	2	13	14
          18	4	13	15
          19	1	13	16
          20	3	14	16
          21	2	16	17
          22	4	16	18
          23	1	16	19
          24	3	17	19
          25	2	19	20
          26	4	19	21
          27	1	19	22
          28	3	20	22
          29	2	22	23
          30	4	22	24
          31	1	22	25
          32	3	23	25
          33	2	25	26
          34	4	25	27
          35	1	25	28
          36	3	26	28
          37	2	28	29
          38	4	28	30
          39	1	28	31
          40	3	29	31
          41	2	31	32
          42	4	31	33
          43	1	31	34
          44	3	32	34
          45	2	34	35
          46	5	34	36
          47	1	34	37
          48	3	35	37
          49	2	37	38
          50	4	37	39
          51	1	37	40
          52	3	38	40
          53	2	40	41
          54	5	40	42
          55	1	40	43
          56	3	41	43
          57	2	43	44
          58	4	43	45
          59	1	43	46
          60	3	44	46
          61	2	46	47
          62	4	46	48
          63	1	46	49
          64	3	47	49
          65	2	49	50
          66	4	49	51
          67	1	49	52
          68	3	50	52
          69	2	52	53
          70	4	52	54
          71	1	52	55
          72	3	53	55
          73	2	55	56
          74	4	55	57
          75	1	55	58
          76	3	56	58
          77	2	58	59
          78	4	58	60
          79	1	58	61
          80	3	59	61
          81	2	61	62
          82	4	61	63
          83	1	61	64
          84	3	62	64
          85	2	64	65
          86	4	64	66
          87	1	64	67
          88	3	65	67
          89	2	67	68
          90	4	67	69
          91	1	67	70
          92	3	68	70
          93	2	70	71
          94	4	70	72
          95	1	70	73
          96	3	71	73
          97	2	73	74
          98	4	73	75
          99	1	73	76
         100	3	74	76
         101	2	76	77
         102	4	76	78
         103	1	76	79
         104	3	77	79
         105	2	79	80
         106	4	79	81
         107	1	79	82
         108	3	80	82
         109	2	82	83
         110	4	82	84
         111	1	82	85
         112	3	83	85
         113	2	85	86
         114	4	85	87
         115	1	85	88
         116	3	86	88
         117	2	88	89
         118	4	88	90
         119	1	88	91
         120	3	89	91
         121	2	91	92
         122	4	91	93
         123	1	91	94
         124	3	92	94
         125	2	94	95
         126	4	94	96
         127	1	94	97
         128	3	95	97
         129	2	97	98
         130	5	97	99
         131	1	97	100
         132	3	98	100
         133	2	100	101
         134	4	100	102
         135	1	100	103
         136	3	101	103
         137	2	103	104
         138	4	103	105
         139	1	103	106
         140	3	104	106
         141	2	106	107
         142	5	106	108
         143	1	106	109
         144	3	107	109
         145	2	109	110
         146	4	109	111
         147	1	109	112
         148	3	110	112
         149	2	112	113
         150	4	112	114
         151	1	112	115
         152	3	113	115
         153	2	115	116
         154	4	115	117
         155	1	115	118
         156	3	116	118
         157	2	118	119
         158	4	118	120
         159	1	118	121
         160	3	119	121
         161	2	121	122
         162	4	121	123
         163	1	121	124
         164	3	122	124
         165	2	124	125
         166	5	124	126
         167	1	124	127
         168	3	125	127
         169	2	127	128
         170	4	127	129
         171	1	127	130
         172	3	128	130
         173	2	130	131
         174	4	130	132
         175	1	130	133
         176	3	131	133
         177	2	133	134
         178	4	133	135
         179	1	133	136
         180	3	134	136
         181	2	136	137
         182	4	136	138
         183	1	136	139
         184	3	137	139
         185	2	139	140
         186	4	139	141
         187	1	139	142
         188	3	140	142
         189	2	142	143
         190	4	142	144
         191	1	142	145
         192	3	143	145
         193	2	145	146
         194	4	145	147
         195	1	145	148
         196	3	146	148
         197	2	148	149
         198	4	148	150
         199	1	148	151
         200	3	149	151
         201	2	151	152
         202	4	151	153
         203	1	151	154
         204	3	152	154
         205	2	154	155
         206	5	154	156
         207	1	154	157
         208	3	155	157
         209	2	157	158
         210	5	157	159
         211	1	157	160
         212	3	158	160
         213	2	160	161
         214	4	160	162
         215	1	160	163
         216	3	161	163
         217	2	163	164
         218	4	163	165
         219	1	163	166
         220	3	164	166
         221	2	166	167
         222	4	166	168
         223	1	166	169
         224	3	167	169
         225	2	169	170
         226	4	169	171
         227	1	169	172
         228	3	170	172
         229	2	172	173
         230	4	172	174
         231	1	172	175
         232	3	173	175
         233	2	175	176
         234	4	175	177
         235	1	175	178
         236	3	176	178
         237	2	178	179
         238	4	178	180
         239	1	178	181
         240	3	179	181
         241	2	181	182
         242	5	181	183
         243	1	181	184
         244	3	182	184
         245	2	184	185
         246	4	184	186
         247	1	184	187
         248	3	185	187
         249	2	187	188
         250	4	187	189
         251	1	187	190
         252	3	188	190
         253	2	190	191
         254	4	190	192
         255	1	190	193
         256	3	191	193
         257	2	193	194
         258	4	193	195
         259	1	193	196
         260	3	194	196
         261	2	196	197
         262	4	196	198
         263	1	196	199
         264	3	197	199
         265	2	199	200
         266	4	199	201
         267	1	199	202
         268	3	200	202
         269	2	202	203
         270	4	202	204
         271	1	202	205
         272	3	203	205
         273	2	205	206
         274	4	205	207
         275	1	205	208
         276	3	206	208
         277	2	208	209
         278	4	208	210
         279	1	208	211
         280	3	209	211
         281	2	211	212
         282	4	211	213
         283	1	211	214
         284	3	212	214
         285	2	214	215
         286	4	214	216
         287	1	214	217
         288	3	215	217
         289	2	217	218
         290	4	217	219
         291	1	217	220
         292	3	218	220
         293	2	220	221
         294	4	220	222
         295	1	220	223
         296	3	221	223
         297	2	223	224
         298	4	223	225
         299	1	223	226
         300	3	224	226
         301	2	226	227
         302	4	226	228
         303	1	226	229
         304	3	227	229
         305	2	229	230
         306	4	229	231
         307	1	229	232
         308	3	230	232
         309	2	232	233
         310	4	232	234
         311	1	232	235
         312	3	233	235
         313	2	235	236
         314	5	235	237
         315	1	235	238
         316	3	236	238
         317	2	238	239
         318	4	238	240
         319	1	238	241
         320	3	239	241
         321	2	241	242
         322	4	241	243
         323	1	241	244
         324	3	242	244
         325	2	244	245
         326	4	244	246
         327	1	244	247
         328	3	245	247
         329	2	247	248
         330	5	247	249
         331	1	247	250
         332	3	248	250
         333	2	250	251
         334	4	250	252
         335	1	250	253
         336	3	251	253
         337	2	253	254
         338	4	253	255
         339	1	253	256
         340	3	254	256
         341	2	256	257
         342	4	256	258
         343	1	256	259
         344	3	257	259
         345	2	259	260
         346	4	259	261
         347	1	259	262
         348	3	260	262
         349	2	262	263
         350	4	262	264
         351	1	262	265
         352	3	263	265
         353	2	265	266
         354	4	265	267
         355	1	265	268
         356	3	266	268
         357	2	268	269
         358	4	268	270
         359	1	268	271
         360	3	269	271
         361	2	271	272
         362	4	271	273
         363	1	271	274
         364	3	272	274
         365	2	274	275
         366	4	274	276
         367	1	274	277
         368	3	275	277
         369	2	277	278
         370	4	277	279
         371	1	277	280
         372	3	278	280
         373	2	280	281
         374	4	280	282
         375	1	280	283
         376	3	281	283
         377	2	283	284
         378	4	283	285
         379	1	283	286
         380	3	284	286
         381	2	286	287
         382	4	286	288
         383	1	286	289
         384	3	287	289
         385	2	289	290
         386	4	289	291
         387	1	289	292
         388	3	290	292
         389	2	292	293
         390	4	292	294
         391	1	292	295
         392	3	293	295
         393	2	295	296
         394	4	295	297
         395	1	295	298
         396	3	296	298
         397	2	298	299
         398	4	298	300
         399	1	298	301
         400	3	299	301
         401	2	301	302
         402	4	301	303
         403	1	301	304
         404	3	302	304
         405	2	304	305
         406	5	304	306
         407	1	304	307
         408	3	305	307
         409	2	307	308
         410	4	307	309
         411	1	307	310
         412	3	308	310
         413	2	310	311
         414	4	310	312
         415	1	310	313
         416	3	311	313
         417	2	313	314
         418	4	313	315
         419	1	313	316
         420	3	314	316
         421	2	316	317
         422	4	316	318
         423	1	316	319
         424	3	317	319
         425	2	319	320
         426	4	319	321
         427	1	319	322
         428	3	320	322
         429	2	322	323
         430	4	322	324

