ITEM: TIMESTEP
0
ITEM: NUMBER OF ATOMS
324
ITEM: BOX BOUNDS ss ss ss
3.52 38.708
2.826 28.559
38.66 81.755
ITEM: ATOMS id type xs ys zs
1 1 0.371519 0.853107 0.0163592
2 3 0.428442 0.805697 0.00659008
3 4 0.340173 0.820814 0.000928182
4 1 0.42847 0.759647 0.0656921
5 3 0.371917 0.727665 0.0895927
6 4 0.456178 0.787199 0.0878292
7 1 0.402183 0.63269 0.105349
8 3 0.430061 0.669335 0.151642
9 4 0.424434 0.583686 0.104513
10 1 0.364641 0.6794 0.183362
11 3 0.383483 0.598764 0.207449
12 4 0.322155 0.689465 0.187238
13 1 0.411504 0.649633 0.262188
14 3 0.416193 0.724012 0.295765
15 4 0.4547 0.647534 0.260982
16 1 0.353103 0.695022 0.33157
17 3 0.313345 0.621537 0.34475
18 4 0.322638 0.732017 0.321012
19 1 0.338581 0.622858 0.408238
20 3 0.339917 0.694672 0.443694
21 4 0.372883 0.588078 0.414317
22 1 0.295726 0.639529 0.490103
23 3 0.292799 0.549372 0.506138
24 4 0.252387 0.652936 0.497041
25 1 0.34094 0.562896 0.554844
26 3 0.323661 0.621809 0.595591
27 4 0.38408 0.558777 0.556422
28 1 0.292031 0.545642 0.633043
29 3 0.312038 0.458866 0.645806
30 4 0.248068 0.54467 0.633067
31 1 0.32764 0.480822 0.707437
32 3 0.291065 0.529748 0.743868
33 4 0.370155 0.48976 0.715536
34 1 0.272337 0.443982 0.779371
35 3 0.292145 0.356391 0.784314
36 5 0.295101 0.439515 0.68786
37 1 0.285865 0.352427 0.847662
38 3 0.219791 0.334124 0.847964
39 4 0.290383 0.367505 0.881634
40 1 0.229084 0.231765 0.830375
41 3 0.277396 0.17872 0.806405
42 5 0.259492 0.203552 0.727498
43 1 0.230874 0.109431 0.782202
44 3 0.220785 0.0680838 0.732475
45 4 0.230647 0.0605837 0.803481
46 1 0.160907 0.131582 0.715489
47 3 0.134279 0.210819 0.734447
48 4 0.130925 0.0889908 0.717392
49 1 0.114357 0.247892 0.675949
50 3 0.0652779 0.300898 0.697854
51 4 0.109128 0.254187 0.641652
52 1 0.023076 0.216259 0.718923
53 3 0.00738888 0.256558 0.767166
54 4 0.00113675 0.163642 0.716603
55 1 0.0730363 0.218824 0.798121
56 3 0.121178 0.256169 0.830584
57 4 0.0843469 0.166906 0.814155
58 1 0.14971 0.322388 0.78733
59 3 0.138286 0.381533 0.746397
60 4 0.186171 0.302102 0.772039
61 1 0.11987 0.463141 0.785033
62 3 0.186541 0.484242 0.780879
63 4 0.104894 0.492442 0.812484
64 1 0.178868 0.550499 0.730758
65 3 0.171451 0.635099 0.751387
66 4 0.160936 0.569891 0.700592
67 1 0.236814 0.632223 0.78675
68 3 0.252956 0.720476 0.774614
69 4 0.262845 0.61085 0.81202
70 1 0.305445 0.693001 0.729551
71 3 0.292856 0.63335 0.687853
72 4 0.347249 0.688027 0.73809
73 1 0.296578 0.708584 0.641467
74 3 0.314198 0.795049 0.6265
75 4 0.254547 0.712665 0.633832
76 1 0.364386 0.764893 0.580833
77 3 0.356968 0.708973 0.536095
78 4 0.406786 0.761357 0.587122
79 1 0.352677 0.787821 0.493723
80 3 0.419006 0.811137 0.494373
81 4 0.328351 0.831151 0.477875
82 1 0.436143 0.758598 0.439517
83 3 0.411532 0.727121 0.39102
84 4 0.45632 0.708973 0.448776
85 1 0.450807 0.80014 0.355563
86 3 0.518273 0.814557 0.355981
87 4 0.434694 0.854117 0.346003
88 1 0.532738 0.751836 0.305418
89 3 0.566813 0.756344 0.256735
90 4 0.544902 0.696032 0.311637
91 1 0.507616 0.799946 0.223831
92 3 0.451802 0.850076 0.230816
93 4 0.491219 0.7558 0.203991
94 1 0.537087 0.888509 0.189372
95 3 0.602535 0.883651 0.205035
96 4 0.534728 0.93553 0.167769
97 1 0.589604 0.914701 0.264277
98 3 0.539644 0.9011 0.300569
99 5 0.560333 0.863017 0.192905
100 1 0.589803 0.87483 0.35011
101 3 0.593384 0.960595 0.371226
102 4 0.627714 0.856177 0.363244
103 1 0.522479 0.953678 0.400023
104 3 0.486899 0.880154 0.417427
105 4 0.506536 0.998446 0.380601
106 1 0.443361 0.937357 0.460007
107 3 0.479965 0.969689 0.503098
108 5 0.473116 0.845124 0.371609
109 1 0.428243 0.940466 0.547906
110 3 0.470729 0.914546 0.588467
111 4 0.390304 0.935997 0.566214
112 1 0.497584 0.828975 0.55735
113 3 0.547744 0.891423 0.549089
114 4 0.506366 0.789725 0.531663
115 1 0.583267 0.872032 0.607913
116 3 0.643089 0.901644 0.587678
117 4 0.589945 0.840477 0.637336
118 1 0.652154 0.818016 0.548138
119 3 0.644822 0.756189 0.505743
120 4 0.68009 0.779194 0.561597
121 1 0.60191 0.825827 0.46966
122 3 0.627487 0.765865 0.432579
123 4 0.583494 0.874597 0.457455
124 1 0.694811 0.816967 0.425293
125 3 0.70578 0.729452 0.409351
126 5 0.664204 0.777135 0.318806
127 1 0.739855 0.698675 0.463766
128 3 0.716324 0.614658 0.449124
129 4 0.75844 0.697315 0.495556
130 1 0.644168 0.631019 0.471609
131 3 0.643685 0.573077 0.427567
132 4 0.60748 0.654024 0.485254
133 1 0.630584 0.650177 0.383664
134 3 0.654797 0.579723 0.353614
135 4 0.631153 0.701473 0.36633
136 1 0.729482 0.595189 0.370878
137 3 0.739968 0.503439 0.365843
138 4 0.766511 0.620254 0.380903
139 1 0.708452 0.480201 0.42288
140 3 0.68836 0.402596 0.396287
141 4 0.692964 0.484009 0.456062
142 1 0.621604 0.444915 0.376401
143 3 0.63354 0.388645 0.333101
144 4 0.585171 0.477053 0.374893
145 1 0.667557 0.4659 0.297413
146 3 0.68998 0.38573 0.277271
147 4 0.687223 0.514942 0.287388
148 1 0.749915 0.378969 0.317345
149 3 0.744117 0.289978 0.302889
150 4 0.77606 0.385847 0.344541
151 1 0.683472 0.269187 0.339274
152 3 0.632886 0.220884 0.315025
153 4 0.66733 0.262775 0.372688
154 1 0.622457 0.29332 0.268616
155 3 0.556298 0.278553 0.264184
156 5 0.649739 0.259589 0.164363
157 1 0.538223 0.339991 0.315651
158 3 0.491986 0.296468 0.347047
159 5 0.57602 0.349143 0.238822
160 1 0.533193 0.205495 0.351201
161 3 0.572127 0.198189 0.396589
162 4 0.553854 0.157891 0.338786
163 1 0.514437 0.236078 0.436176
164 3 0.557037 0.189795 0.470101
165 4 0.475219 0.248669 0.449542
166 1 0.524184 0.0936929 0.45764
167 3 0.57855 0.0444565 0.471516
168 4 0.499631 0.049897 0.444831
169 1 0.627117 0.0919442 0.430073
170 3 0.688615 0.126608 0.44149
171 4 0.63641 0.0896126 0.396078
172 1 0.662101 0.200715 0.482724
173 3 0.662612 0.141414 0.525792
174 4 0.637035 0.243345 0.496949
175 1 0.740139 0.140054 0.532637
176 3 0.743975 0.211052 0.569138
177 4 0.780039 0.122333 0.52136
178 1 0.757218 0.140637 0.619422
179 3 0.821985 0.110558 0.618935
180 4 0.740764 0.0967629 0.6391
181 1 0.851455 0.20464 0.64026
182 3 0.86413 0.171958 0.691217
183 5 0.811555 0.218283 0.533657
184 1 0.913863 0.0935764 0.669498
185 3 0.930033 0.0870478 0.723193
186 4 0.944072 0.0658687 0.649843
187 1 0.966466 0.181673 0.725676
188 3 0.945521 0.208837 0.77603
189 4 0.998863 0.219407 0.716812
190 1 0.877657 0.252633 0.755517
191 3 0.852677 0.170987 0.774475
192 4 0.843583 0.272918 0.735955
193 1 0.85711 0.200288 0.836524
194 3 0.823718 0.271519 0.859775
195 4 0.8909 0.195469 0.858336
196 1 0.759776 0.210314 0.874208
197 3 0.761879 0.132981 0.90398
198 4 0.725645 0.201259 0.852837
199 1 0.728487 0.177671 0.957188
200 3 0.673326 0.145533 0.930618
201 4 0.713738 0.222205 0.977236
202 1 0.668523 0.0547935 0.963755
203 3 0.617597 0.0368399 0.999072
204 4 0.6835 0.00155442 0.974034
205 1 0.572979 0.118214 0.980044
206 3 0.553513 0.0810244 0.932034
207 4 0.566585 0.177282 0.979812
208 1 0.47988 0.0661796 0.948231
209 3 0.421081 0.0969961 0.969579
210 4 0.466722 0.0110364 0.95503
211 1 0.42199 0.188668 0.934447
212 3 0.429777 0.234329 0.885509
213 4 0.442566 0.234835 0.949275
214 1 0.380783 0.168733 0.85163
215 3 0.349466 0.251156 0.855946
216 4 0.349722 0.128162 0.847593
217 1 0.368506 0.277853 0.793851
218 3 0.378112 0.233669 0.744797
219 4 0.403802 0.314421 0.794825
220 1 0.311612 0.269382 0.718668
221 3 0.314511 0.358917 0.702402
222 4 0.268216 0.262348 0.716997
223 1 0.35424 0.335872 0.648312
224 3 0.327782 0.28275 0.60905
225 4 0.396044 0.329383 0.639564
226 1 0.291804 0.364007 0.578049
227 3 0.322894 0.444177 0.563453
228 4 0.249801 0.375821 0.581158
229 1 0.319171 0.421249 0.498759
230 3 0.285012 0.371663 0.460518
231 4 0.358901 0.405394 0.486762
232 1 0.248607 0.457156 0.435248
233 3 0.276628 0.536782 0.418703
234 4 0.208537 0.464928 0.447616
235 1 0.250227 0.529631 0.358812
236 3 0.257048 0.461314 0.321337
237 5 0.243577 0.539496 0.274255
238 1 0.305843 0.517507 0.283629
239 3 0.364641 0.56072 0.292006
240 4 0.289928 0.549139 0.256132
241 1 0.408662 0.480822 0.268245
242 3 0.412129 0.429293 0.222114
243 4 0.429578 0.439125 0.286623
244 1 0.439781 0.5109 0.185126
245 3 0.410765 0.450939 0.149391
246 4 0.475872 0.478996 0.179
247 1 0.341025 0.498387 0.150992
248 3 0.291719 0.434928 0.147883
249 5 0.373906 0.475122 0.0612137
250 1 0.318432 0.37551 0.195406
251 3 0.320365 0.405277 0.248335
252 4 0.347505 0.332452 0.196055
253 1 0.247101 0.371002 0.26249
254 3 0.276088 0.292815 0.28226
255 4 0.205184 0.356624 0.259775
256 1 0.289047 0.339292 0.341664
257 3 0.236444 0.368243 0.372479
258 4 0.322496 0.372945 0.351735
259 1 0.236899 0.283527 0.411974
260 3 0.25341 0.196091 0.424597
261 4 0.198335 0.263708 0.401648
262 1 0.301381 0.227645 0.474719
263 3 0.287428 0.283605 0.518413
264 4 0.342787 0.236156 0.464764
265 1 0.298937 0.208565 0.561852
266 3 0.317807 0.120973 0.565031
267 4 0.257929 0.210469 0.572897
268 1 0.364585 0.138383 0.617055
269 3 0.366176 0.19714 0.660239
270 4 0.404485 0.139976 0.603597
271 1 0.367625 0.121129 0.704885
272 3 0.424093 0.0706486 0.705998
273 4 0.339974 0.0859985 0.724214
274 1 0.463368 0.140403 0.742963
275 3 0.432335 0.140131 0.792783
276 4 0.486188 0.189484 0.736861
277 1 0.490735 0.0886799 0.82346
278 3 0.479425 0.135662 0.870031
279 4 0.523644 0.0516458 0.830909
280 1 0.512987 0.226946 0.848242
281 3 0.547147 0.257801 0.803759
282 4 0.539616 0.21898 0.876552
283 1 0.533335 0.361676 0.812948
284 3 0.585484 0.36902 0.777097
285 4 0.525151 0.414992 0.827521
286 1 0.64073 0.342284 0.819213
287 3 0.676395 0.310924 0.776146
288 4 0.661674 0.323748 0.848428
289 1 0.627373 0.225936 0.767398
290 3 0.629618 0.23806 0.711846
291 4 0.60316 0.179614 0.776726
292 1 0.564909 0.298877 0.7105
293 3 0.603388 0.331792 0.669126
294 4 0.529158 0.329383 0.718761
295 1 0.636012 0.409591 0.705998
296 3 0.698988 0.414565 0.686019
297 4 0.642691 0.450161 0.731941
298 1 0.712999 0.308398 0.690359
299 3 0.738291 0.260522 0.647848
300 4 0.723258 0.267089 0.71405
301 1 0.672076 0.265768 0.612948
302 3 0.649653 0.344227 0.588212
303 4 0.633369 0.239342 0.610117
304 1 0.713652 0.356896 0.55308
305 3 0.705013 0.417246 0.595034
306 5 0.707315 0.338917 0.42862
307 1 0.769382 0.472817 0.581692
308 3 0.739144 0.527882 0.618772
309 4 0.802092 0.49831 0.564219
310 1 0.691287 0.576575 0.577492
311 3 0.628226 0.610461 0.571458
312 4 0.708452 0.628259 0.567258
313 1 0.601256 0.526328 0.537417
314 3 0.548113 0.564373 0.564799
315 4 0.594919 0.471923 0.522497
316 1 0.551466 0.491354 0.613064
317 3 0.543168 0.522792 0.664532
318 4 0.546919 0.434306 0.621534
319 1 0.607366 0.579878 0.666504
320 3 0.603615 0.6712 0.655969
321 4 0.650193 0.586989 0.666458
322 1 0.529158 0.679789 0.679081
323 3 0.48005 0.709128 0.714445
324 4 0.505485 0.687561 0.649171
