LAMMPS protain data file

         312  atoms
         414  bonds
           0  angles
           0  dihedrals
           0  impropers

           5  atom types
           5  bond types
           0  angle types
           0  dihedral types
           0  improper types

-200.0	200.0	xlo xhi
-200.0	200.0	ylo yhi
-200.0	200.0	zlo zhi

Masses

           1	27.0
           2	14.0
           3	28.0
           4	60.0
           5	60.0

Atoms

           1	1	1	1	0.0	53.43899918	13.21500015	-4.51900005
           2	1	1	3	0.0	55.70000076	13.9090004	-4.64599991
           3	1	1	5	0.0	52.50400162	12.17339695	-2.8903161
           4	1	2	1	0.0	55.28300095	15.80000019	-6.53499985
           5	1	2	3	0.0	54.67100143	17.88299942	-5.47100019
           6	1	2	4	0.0	55.0909996	16.24200058	-7.96199989
           7	1	3	1	0.0	56.9070015	17.79199982	-3.75399995
           8	1	3	3	0.0	57.00500107	20.13500023	-3.71199989
           9	1	3	4	0.0	57.94900131	17.29000092	-2.76399994
          10	1	4	1	0.0	58.05599976	20.5359993	-6.19899988
          11	1	4	3	0.0	56.72000122	22.34600067	-7.07999992
          12	1	4	4	0.0	59.22499847	20.56900024	-7.1500001
          13	1	5	1	0.0	54.70999908	20.70299911	-7.97700024
          14	1	5	3	0.0	53.18299866	22.29999924	-6.95200014
          15	1	5	4	0.0	53.94200134	19.64100075	-8.72500038
          16	1	6	1	0.0	53.31399918	20.90399933	-4.44700003
          17	1	6	3	0.0	52.86000061	23.09700012	-3.6329999
          18	1	6	5	0.0	53.98400116	19.00978323	-3.27662762
          19	1	7	1	0.0	55.54399872	23.88599968	-3.523
          20	1	7	3	0.0	54.63299942	26.07999992	-3.67199993
          21	1	7	4	0.0	57.06100082	24.05900002	-3.61299992
          22	1	8	1	0.0	54.25600052	25.96500015	-6.42500019
          23	1	8	3	0.0	52.47299957	27.45000076	-5.88899994
          24	1	8	4	0.0	54.26100159	25.62800026	-7.90999985
          25	1	9	1	0.0	50.58800125	25.40999985	-5.39799976
          26	1	9	3	0.0	49.78300095	27.14999962	-3.90700006
          27	1	9	4	0.0	49.8219986	24.04400063	-5.33500004
          28	1	10	1	0.0	51.60100174	26.4279995	-1.89400005
          29	1	10	3	0.0	51.02299881	28.65999985	-1.50999999
          30	1	10	4	0.0	52.55699921	25.74200058	-0.91799998
          31	1	11	1	0.0	53.31399918	29.72900009	-2.94499993
          32	1	11	3	0.0	51.8769989	31.68499947	-2.97600007
          33	1	11	4	0.0	54.52099991	29.7329998	-3.93199992
          34	1	12	1	0.0	50.375	30.51399994	-5.15100002
          35	1	12	3	0.0	48.31700134	31.54100037	-4.70800018
          36	1	12	4	0.0	50.26399994	29.7670002	-6.5079999
          37	1	13	1	0.0	47.45100021	29.67900085	-2.94000006
          38	1	13	3	0.0	46.35100174	30.22900009	-0.92400002
          39	1	13	4	0.0	46.61100006	28.47500038	-3.33100009
          40	1	14	1	0.0	48.47700119	29.43400002	0.69
          41	1	14	3	0.0	49.10499954	30.86599922	2.45799994
          42	1	14	4	0.0	48.85400009	28.04100037	1.25100005
          43	1	15	1	0.0	51.59700012	31.5890007	1.19700003
          44	1	15	3	0.0	51.77399826	33.57600021	2.477
          45	1	15	4	0.0	52.70399857	31.70899963	0.152
          46	1	16	1	0.0	49.42499924	34.7140007	1.58099997
          47	1	16	3	0.0	48.92499924	35.84600067	3.6559999
          48	1	16	4	0.0	48.27999878	35.01800156	0.60299999
          49	1	17	1	0.0	48.16999817	33.58000183	4.9749999
          50	1	17	3	0.0	48.38800049	32.44900131	7.0250001
          51	1	17	4	0.0	46.64899826	33.36999893	4.96099997
          52	1	18	1	0.0	50.54800034	30.86800003	6.22100019
          53	1	18	3	0.0	52.4980011	30.95400047	4.86399984
          54	1	18	4	0.0	50.125	29.4279995	5.8499999
          55	1	19	1	0.0	54.15399933	30.00600052	7.10099983
          56	1	19	3	0.0	53.32099915	27.94300079	7.95499992
          57	1	19	4	0.0	54.76900101	30.83600044	8.29300022
          58	1	20	1	0.0	55.5320015	26.46299934	7.19000006
          59	1	20	3	0.0	56.9620018	25.15200043	8.56700039
          60	1	20	4	0.0	55.48199844	25.54400063	5.95900011
          61	1	21	1	0.0	58.96300125	26.94300079	8.77999973
          62	1	21	3	0.0	58.15000153	27.73399925	10.96700001
          63	1	21	4	0.0	60.13499832	27.65699959	8.13300037
          64	1	22	1	0.0	60.05899811	26.3409996	12.36299992
          65	1	22	3	0.0	60.91500092	28.64800072	12.51299953
          66	1	22	4	0.0	61.24399948	25.47500038	12.69299984
          67	1	23	1	0.0	59.27799988	29.27499962	14.5880003
          68	1	23	3	0.0	59.08000183	31.54199982	13.96100044
          69	1	23	5	0.0	59.34500122	27.97129846	14.8632393
          70	1	24	1	0.0	57.90200043	31.11300087	11.47599983
          71	1	24	3	0.0	55.99700165	31.08399963	12.95199966
          72	1	24	5	0.0	58.34999847	29.75997185	9.44094579
          73	1	25	1	0.0	55.1590004	33.68899918	12.17399979
          74	1	25	3	0.0	53.55199814	32.60699844	10.63500023
          75	1	25	4	0.0	55.31800079	35.17599869	11.80900002
          76	1	26	1	0.0	51.39300156	33.51599884	12.27099991
          77	1	26	3	0.0	51.36500168	35.86800003	11.79500008
          78	1	26	4	0.0	50.5530014	33.40399933	13.54100037
          79	1	27	1	0.0	49.96500015	35.58599854	9.40799999
          80	1	27	3	0.0	48.09899902	35.56700134	10.85599995
          81	1	27	4	0.0	50.48600006	35.2519989	8.03899956
          82	1	28	1	0.0	46.12599945	35.83599854	8.87199974
          83	1	28	3	0.0	45.04000092	34.26399994	10.3579998
          84	1	28	4	0.0	45.26800156	36.03499985	7.58900023
          85	1	29	1	0.0	46.33599854	32.02199936	9.30300045
          86	1	29	3	0.0	48.70700073	32.20700073	9.89400005
          87	1	29	5	0.0	46.5	28.89329596	8.68274419
          88	1	30	1	0.0	48.6629982	30.11499977	11.59300041
          89	1	30	3	0.0	49.79100037	28.90500069	9.75899982
          90	1	30	4	0.0	48.0359993	29.0359993	12.48600006
          91	1	31	1	0.0	52.22299957	28.86100006	10.95899963
          92	1	31	3	0.0	51.16500092	26.9470005	11.92300034
          93	1	31	4	0.0	53.44800186	29.17700005	11.73900032
          94	1	32	1	0.0	52.07699966	25.22100067	9.94499969
          95	1	32	3	0.0	52.8390007	23.04899979	10.25500011
          96	1	32	4	0.0	51.71300125	25.03899956	8.4659996
          97	1	33	1	0.0	55.29800034	23.66300011	11.29699993
          98	1	33	3	0.0	53.93799973	23.1439991	13.16499996
          99	1	33	4	0.0	56.59199905	24.24900055	11.86299992
         100	1	34	1	0.0	54.35100174	20.34600067	12.88099957
         101	1	34	3	0.0	52.38899994	19.29000092	13.68700027
         102	1	34	5	0.0	54.88199997	18.29374805	12.92737165
         103	1	35	1	0.0	50.84600067	19.87400055	11.46000004
         104	1	35	3	0.0	49.52000046	18.0510006	12.34500027
         105	1	35	4	0.0	50.50299835	20.40999985	10.01000023
         106	1	36	1	0.0	50.94200134	16.12800026	10.6619997
         107	1	36	3	0.0	52.15999985	15.44099998	12.5880003
         108	1	36	4	0.0	51.98899841	15.67399979	9.62699986
         109	1	37	1	0.0	50.0019989	13.95400047	13.69200039
         110	1	37	3	0.0	49.14099884	14.19200039	16.00699997
         111	1	37	5	0.0	50.04199982	11.88065234	13.26393713
         112	1	38	1	0.0	48.60499954	16.88800049	15.63500023
         113	1	38	3	0.0	46.68199921	16.9659996	14.19499969
         114	1	38	4	0.0	49.43099976	18.16799927	15.44299984
         115	1	39	1	0.0	44.97900009	17.67099953	16.36199951
         116	1	39	3	0.0	45.81000137	19.90399933	15.78199959
         117	1	39	4	0.0	44.24300003	17.55400085	17.68199921
         118	1	40	1	0.0	43.11500168	20.63299942	14.97299957
         119	1	40	3	0.0	43.05799866	21.47599983	17.2140007
         120	1	40	4	0.0	41.6780014	20.41699982	14.3579998
         121	1	41	1	0.0	43.63899994	24.11899948	16.37100029
         122	1	41	3	0.0	44.39799881	24.61700058	18.57500076
         123	1	41	5	0.0	43.52399826	23.73633817	15.41138713
         124	1	42	1	0.0	46.9980011	23.39500046	18.04000092
         125	1	42	3	0.0	49.38700104	23.78700066	18.30999947
         126	1	42	4	0.0	47.24300003	21.8579998	18.17300034
         127	1	43	1	0.0	49.49100113	25.99200058	16.80800056
         128	1	43	3	0.0	48.5530014	27.61199951	18.33799934
         129	1	43	4	0.0	49.38499832	26.94499969	15.63099957
         130	1	44	1	0.0	50.63000107	27.67000008	20.03800011
         131	1	44	3	0.0	51.61100006	29.40500069	18.75099945
         132	1	44	4	0.0	51.90299988	27.23800087	20.75900078
         133	1	45	1	0.0	50.14699936	31.41799927	19.88199997
         134	1	45	3	0.0	49.23300171	33.20500183	18.63199997
         135	1	45	5	0.0	50.02000046	30.41702584	18.91929376
         136	1	46	1	0.0	47.38399887	31.5739994	17.25799942
         137	1	46	3	0.0	45.80500031	30.33600044	18.59000015
         138	1	46	4	0.0	47.50099945	30.85899925	15.90499973
         139	1	47	1	0.0	43.75299835	32.2480011	18.28000069
         140	1	47	3	0.0	42.57099915	32.43000031	16.15099907
         141	1	47	4	0.0	43.18000031	33.56700134	18.89599991
         142	1	48	1	0.0	41.57600021	29.86000061	16.40299988
         143	1	48	3	0.0	39.73400116	30.32900047	17.91399956
         144	1	48	4	0.0	41.84600067	28.36300087	16.48699951
         145	1	49	1	0.0	37.83000183	29.7670002	15.99100018
         146	1	49	3	0.0	38.42399979	27.62000084	16.91799927
         147	1	49	4	0.0	36.98500061	29.68300056	14.6789999
         148	1	50	1	0.0	36.18999863	27.3010006	18.46199989
         149	1	50	3	0.0	36.2179985	24.95400047	17.88699913
         150	1	50	4	0.0	34.91500092	27.40600014	19.29700089
         151	1	51	1	0.0	35.09700012	25.27499962	15.40200043
         152	1	51	3	0.0	36.47700119	23.32099915	14.92399979
         153	1	51	4	0.0	34.40399933	25.88100052	14.18200016
         154	1	52	1	0.0	38.71900177	24.74300003	14.45800018
         155	1	52	3	0.0	40.04899979	22.97400093	15.54800034
         156	1	52	4	0.0	39.71300125	25.81500053	13.95100021
         157	1	53	1	0.0	39.80799866	24.04199982	17.99600029
         158	1	53	3	0.0	39.99300003	21.82600021	18.77499962
         159	1	53	4	0.0	39.625	25.02099991	19.12700081
         160	1	54	1	0.0	36.98500061	21.54500008	18.62599945
         161	1	54	3	0.0	36.14300156	19.46199989	17.9260006
         162	1	54	4	0.0	35.61899948	22.17000008	18.96899986
         163	1	55	1	0.0	36.95700073	19.68499947	15.23400021
         164	1	55	3	0.0	36.56800079	17.29800034	15.6590004
         165	1	55	4	0.0	37.68999863	19.97800064	13.93999958
         166	1	56	1	0.0	38.86399841	17.05999947	17.0720005
         167	1	56	3	0.0	39.23600006	14.81999969	17.02899933
         168	1	56	5	0.0	38.42200089	15.59599125	17.0380727
         169	1	57	1	0.0	40.48400116	14.95400047	14.34899998
         170	1	57	3	0.0	42.40000153	16.32999992	14.78800011
         171	1	57	4	0.0	39.80899811	14.82299995	12.96800041
         172	1	58	1	0.0	44.25500107	14.33500004	13.69299984
         173	1	58	3	0.0	43.94200134	13.97599983	11.36600018
         174	1	58	4	0.0	44.98799896	12.99800014	14.07499981
         175	1	59	1	0.0	45.83100128	15.82999992	10.60599995
         176	1	59	3	0.0	47.88299942	14.51000023	10.63700008
         177	1	59	4	0.0	46.4109993	17.18799973	10.36800003
         178	1	60	1	0.0	47.1590004	13.20600033	8.17800045
         179	1	60	3	0.0	46.04700089	14.23900032	6.35699987
         180	1	60	4	0.0	46.95100021	11.84500027	8.77900028
         181	1	61	1	0.0	46.97999954	12.86699963	4.35099983
         182	1	61	3	0.0	44.91400146	13.55599976	3.26300001
         183	1	61	4	0.0	47.70500183	11.90100002	3.4000001
         184	1	62	1	0.0	43.41899872	11.66699982	4.54099989
         185	1	62	3	0.0	41.48099899	12.96399975	4.4380002
         186	1	62	4	0.0	42.90000153	10.27400017	4.85699987
         187	1	63	1	0.0	41.92699814	14.36999989	6.73500013
         188	1	63	3	0.0	41.29999924	16.38400078	5.60200024
         189	1	63	4	0.0	41.94599915	14.45400047	8.28899956
         190	1	64	1	0.0	43.87599945	16.99699974	4.74700022
         191	1	64	3	0.0	42.75099945	17.91500092	2.83699989
         192	1	64	4	0.0	45.39400101	17.13899994	4.6789999
         193	1	65	1	0.0	42.63999939	15.54599953	1.44599998
         194	1	65	3	0.0	40.80400085	16.64100075	0.40900001
         195	1	65	4	0.0	42.70800018	14.12100029	0.89600003
         196	1	66	1	0.0	38.9129982	16.01000023	2.41300011
         197	1	66	3	0.0	37.94400024	18.22400093	2.11800003
         198	1	66	4	0.0	38.23500061	15.09599972	3.39499998
         199	1	67	1	0.0	39.47900009	19.39500046	4.09299994
         200	1	67	3	0.0	38.95999908	21.32600021	2.70900011
         201	1	67	4	0.0	40.47000122	19.52700043	5.26200008
         202	1	68	1	0.0	41.4469986	21.02799988	1.29900002
         203	1	68	3	0.0	40.63199997	22.0510006	-0.62699997
         204	1	68	4	0.0	42.90100098	20.71899986	0.866
         205	1	69	1	0.0	38.66500092	20.19799995	-1.10099995
         206	1	69	3	0.0	37.12200165	21.97400093	-1.61000001
         207	1	69	4	0.0	38.00500107	18.88899994	-1.40999997
         208	1	70	1	0.0	36.16199875	22.3029995	0.833
         209	1	70	3	0.0	35.54199982	22.0529995	3.14899993
         210	1	70	4	0.0	34.79999924	21.82299995	0.36000001
         211	1	71	1	0.0	37.48300171	23.86300087	4.04699993
         212	1	71	3	0.0	36.1969986	23.7140007	6.07299995
         213	1	71	4	0.0	38.51100159	24.9810009	3.94899988
         214	1	72	1	0.0	34.18700027	25.45100021	5.1869998
         215	1	72	3	0.0	32.39699936	24.34300041	6.33300018
         216	1	72	4	0.0	33.3409996	26.54800034	4.59000015
         217	1	73	1	0.0	32.375	22.17099953	4.66599989
         218	1	73	3	0.0	32.09400177	20.77199936	6.58500004
         219	1	73	4	0.0	32.29100037	21.35499954	3.41300011
         220	1	74	1	0.0	34.81499863	20.32099915	6.91800022
         221	1	74	3	0.0	34.63700104	20.26000023	9.24600029
         222	1	74	4	0.0	36.22600174	19.85899925	6.52099991
         223	1	75	1	0.0	35.18799973	23.12000084	9.53199959
         224	1	75	3	0.0	34.74300003	25.45999908	9.15400028
         225	1	75	4	0.0	36.66799927	23.39599991	9.98200035
         226	1	76	1	0.0	31.88199997	24.96699905	9.68599987
         227	1	76	3	0.0	32.23400116	25.7159996	11.94400024
         228	1	76	4	0.0	30.68600082	24.04299927	9.94999981
         229	1	77	1	0.0	32.49399948	28.38199997	11.0880003
         230	1	77	3	0.0	34.39899826	29.57999992	11.7869997
         231	1	77	5	0.0	32.20700073	27.48290852	11.21398523
         232	1	78	1	0.0	36.20600128	28.33300018	10.13700008
         233	1	78	3	0.0	35.54800034	30.36499977	8.97299957
         234	1	78	4	0.0	37.03699875	27.34399986	9.26500034
         235	1	79	1	0.0	37.67399979	31.78800011	9.56999969
         236	1	79	3	0.0	38.97299957	32.92100143	7.91800022
         237	1	79	4	0.0	38.11000061	32.63600159	10.71700001
         238	1	80	1	0.0	39.88800049	30.39299965	6.74700022
         239	1	80	3	0.0	38.1590004	29.6590004	5.34700012
         240	1	80	4	0.0	40.58599854	29.05400085	6.82399988
         241	1	81	1	0.0	38.18899918	31.86000061	3.59200001
         242	1	81	3	0.0	40.02700043	32.29700089	2.10899997
         243	1	81	4	0.0	37.54100037	33.26499939	3.79399991
         244	1	82	1	0.0	39.54800034	29.81599998	0.71399999
         245	1	82	3	0.0	37.97000122	28.03800011	0.89399999
         246	1	82	4	0.0	40.88999939	29.25200081	1.14400005
         247	1	83	1	0.0	37.48799896	27.97400093	-1.88399994
         248	1	83	3	0.0	36.92499924	25.6970005	-1.92400002
         249	1	83	4	0.0	37.30899811	28.52499962	-3.296
         250	1	84	1	0.0	39.50500107	24.70899963	-1.86199999
         251	1	84	3	0.0	40.37900162	25.2689991	-4.02199984
         252	1	84	5	0.0	39.10900116	22.00169369	-0.92633619
         253	1	85	1	0.0	41.45600128	22.69499969	-4.46899986
         254	1	85	3	0.0	40.42900085	20.54700089	-4.4000001
         255	1	85	4	0.0	42.89799881	22.29999924	-4.09700012
         256	1	86	1	0.0	39.04700089	20.93199921	-6.86899996
         257	1	86	3	0.0	39.07600021	18.54199982	-6.76399994
         258	1	86	4	0.0	38.41999817	21.58200073	-8.0880003
         259	1	87	1	0.0	41.45000076	18.43899918	-8.52900028
         260	1	87	3	0.0	42.8370018	18.13100052	-6.57200003
         261	1	87	4	0.0	42.54499817	18.80599976	-9.53800011
         262	1	88	1	0.0	42.66500092	15.40499973	-6.60200024
         263	1	88	3	0.0	44.81100082	15.61999989	-5.58400011
         264	1	88	4	0.0	42.16600037	13.99699974	-6.82000017
         265	1	89	1	0.0	46.23400116	15.43299961	-7.94199991
         266	1	89	3	0.0	47.99200058	16.65699959	-6.82600021
         267	1	89	4	0.0	46.68399811	15.07999992	-9.42000008
         268	1	90	1	0.0	46.66699982	19.0510006	-6.93599987
         269	1	90	3	0.0	47.64799881	19.34000015	-4.72100019
         270	1	90	4	0.0	45.89099884	20.23900032	-7.421
         271	1	91	1	0.0	45.61700058	18.18600082	-3.38800001
         272	1	91	3	0.0	47.40599823	17.45800018	-1.98000002
         273	1	91	4	0.0	44.27099991	17.70000076	-2.87599993
         274	1	92	1	0.0	48.01599884	15.21899986	-3.49499989
         275	1	92	3	0.0	50.24900055	15.53899956	-2.65300012
         276	1	92	4	0.0	47.9659996	13.97700024	-4.38199997
         277	1	93	1	0.0	50.93199921	17.33099937	-4.69099998
         278	1	93	3	0.0	52.19300079	18.07900047	-2.84800005
         279	1	93	4	0.0	50.97499847	18.01099968	-6.03900003
         280	1	94	1	0.0	50.30799866	19.97699928	-1.99899995
         281	1	94	3	0.0	51.39500046	19.61000061	0.114
         282	1	94	4	0.0	49.11999893	20.93700027	-2.01300001
         283	1	95	1	0.0	50.13600159	17.30999947	0.80000001
         284	1	95	3	0.0	52.23500061	16.78800011	1.85599995
         285	1	95	4	0.0	49.06800079	16.2140007	1.10800004
         286	1	96	1	0.0	53.43999863	15.7670002	-0.30199999
         287	1	96	3	0.0	55.29899979	16.69199944	0.81099999
         288	1	96	4	0.0	53.6969986	14.97799969	-1.56900001
         289	1	97	1	0.0	55.04299927	19.27300072	-0.18099999
         290	1	97	3	0.0	55.99499893	19.82900047	1.96099997
         291	1	97	4	0.0	54.9070015	20.51799965	-1.09000003
         292	1	98	1	0.0	53.49200058	20.02599907	3.23000002
         293	1	98	3	0.0	54.68700027	19.50200081	5.23799992
         294	1	98	4	0.0	51.99000168	20.08799934	3.51900005
         295	1	99	1	0.0	54.65299988	16.74699974	4.8579998
         296	1	99	3	0.0	56.76100159	16.82299995	6.0999999
         297	1	99	4	0.0	54.39099884	15.38599968	4.22100019
         298	1	100	1	0.0	58.1570015	17.61400032	3.73099995
         299	1	100	3	0.0	59.3370018	18.83399963	5.42299986
         300	1	100	4	0.0	58.43999863	17.79299927	2.22600007
         301	1	101	1	0.0	58.17699814	21.28199959	4.68200016
         302	1	101	3	0.0	58.33100128	22.25699997	6.85900021
         303	1	101	4	0.0	57.58599854	22.31599998	3.71099997
         304	1	102	1	0.0	56.0870018	21.13100052	7.8579998
         305	1	102	3	0.0	56.61899948	20.52300072	10.09300041
         306	1	102	4	0.0	54.51200104	20.99799919	7.93599987
         307	1	103	1	0.0	58.27299881	18.51199913	9.61900043
         308	1	103	3	0.0	60.47299957	18.29599953	10.52400017
         309	1	103	4	0.0	57.95600128	17.04500008	9.51299953
         310	1	104	1	0.0	61.55400085	20.09300041	8.36999989
         311	1	104	3	0.0	61.89300156	18.06800079	7.079
         312	1	104	4	0.0	62.55599976	20.20899963	9.52099991

Bond Coeffs

           1	200.0	3.77
           2	200.0	2.41
           3	200.0	2.50
           4	200.0	1.54
           5	200.0	1.54
Bonds

           1	2	1	2
           2	5	1	3
           3	1	1	4
           4	3	2	4
           5	2	4	5
           6	4	4	6
           7	1	4	7
           8	3	5	7
           9	2	7	8
          10	4	7	9
          11	1	7	10
          12	3	8	10
          13	2	10	11
          14	4	10	12
          15	1	10	13
          16	3	11	13
          17	2	13	14
          18	4	13	15
          19	1	13	16
          20	3	14	16
          21	2	16	17
          22	5	16	18
          23	1	16	19
          24	3	17	19
          25	2	19	20
          26	4	19	21
          27	1	19	22
          28	3	20	22
          29	2	22	23
          30	4	22	24
          31	1	22	25
          32	3	23	25
          33	2	25	26
          34	4	25	27
          35	1	25	28
          36	3	26	28
          37	2	28	29
          38	4	28	30
          39	1	28	31
          40	3	29	31
          41	2	31	32
          42	4	31	33
          43	1	31	34
          44	3	32	34
          45	2	34	35
          46	4	34	36
          47	1	34	37
          48	3	35	37
          49	2	37	38
          50	4	37	39
          51	1	37	40
          52	3	38	40
          53	2	40	41
          54	4	40	42
          55	1	40	43
          56	3	41	43
          57	2	43	44
          58	4	43	45
          59	1	43	46
          60	3	44	46
          61	2	46	47
          62	4	46	48
          63	1	46	49
          64	3	47	49
          65	2	49	50
          66	4	49	51
          67	1	49	52
          68	3	50	52
          69	2	52	53
          70	4	52	54
          71	1	52	55
          72	3	53	55
          73	2	55	56
          74	4	55	57
          75	1	55	58
          76	3	56	58
          77	2	58	59
          78	4	58	60
          79	1	58	61
          80	3	59	61
          81	2	61	62
          82	4	61	63
          83	1	61	64
          84	3	62	64
          85	2	64	65
          86	4	64	66
          87	1	64	67
          88	3	65	67
          89	2	67	68
          90	5	67	69
          91	1	67	70
          92	3	68	70
          93	2	70	71
          94	5	70	72
          95	1	70	73
          96	3	71	73
          97	2	73	74
          98	4	73	75
          99	1	73	76
         100	3	74	76
         101	2	76	77
         102	4	76	78
         103	1	76	79
         104	3	77	79
         105	2	79	80
         106	4	79	81
         107	1	79	82
         108	3	80	82
         109	2	82	83
         110	4	82	84
         111	1	82	85
         112	3	83	85
         113	2	85	86
         114	5	85	87
         115	1	85	88
         116	3	86	88
         117	2	88	89
         118	4	88	90
         119	1	88	91
         120	3	89	91
         121	2	91	92
         122	4	91	93
         123	1	91	94
         124	3	92	94
         125	2	94	95
         126	4	94	96
         127	1	94	97
         128	3	95	97
         129	2	97	98
         130	4	97	99
         131	1	97	100
         132	3	98	100
         133	2	100	101
         134	5	100	102
         135	1	100	103
         136	3	101	103
         137	2	103	104
         138	4	103	105
         139	1	103	106
         140	3	104	106
         141	2	106	107
         142	4	106	108
         143	1	106	109
         144	3	107	109
         145	2	109	110
         146	5	109	111
         147	1	109	112
         148	3	110	112
         149	2	112	113
         150	4	112	114
         151	1	112	115
         152	3	113	115
         153	2	115	116
         154	4	115	117
         155	1	115	118
         156	3	116	118
         157	2	118	119
         158	4	118	120
         159	1	118	121
         160	3	119	121
         161	2	121	122
         162	5	121	123
         163	1	121	124
         164	3	122	124
         165	2	124	125
         166	4	124	126
         167	1	124	127
         168	3	125	127
         169	2	127	128
         170	4	127	129
         171	1	127	130
         172	3	128	130
         173	2	130	131
         174	4	130	132
         175	1	130	133
         176	3	131	133
         177	2	133	134
         178	5	133	135
         179	1	133	136
         180	3	134	136
         181	2	136	137
         182	4	136	138
         183	1	136	139
         184	3	137	139
         185	2	139	140
         186	4	139	141
         187	1	139	142
         188	3	140	142
         189	2	142	143
         190	4	142	144
         191	1	142	145
         192	3	143	145
         193	2	145	146
         194	4	145	147
         195	1	145	148
         196	3	146	148
         197	2	148	149
         198	4	148	150
         199	1	148	151
         200	3	149	151
         201	2	151	152
         202	4	151	153
         203	1	151	154
         204	3	152	154
         205	2	154	155
         206	4	154	156
         207	1	154	157
         208	3	155	157
         209	2	157	158
         210	4	157	159
         211	1	157	160
         212	3	158	160
         213	2	160	161
         214	4	160	162
         215	1	160	163
         216	3	161	163
         217	2	163	164
         218	4	163	165
         219	1	163	166
         220	3	164	166
         221	2	166	167
         222	5	166	168
         223	1	166	169
         224	3	167	169
         225	2	169	170
         226	4	169	171
         227	1	169	172
         228	3	170	172
         229	2	172	173
         230	4	172	174
         231	1	172	175
         232	3	173	175
         233	2	175	176
         234	4	175	177
         235	1	175	178
         236	3	176	178
         237	2	178	179
         238	4	178	180
         239	1	178	181
         240	3	179	181
         241	2	181	182
         242	4	181	183
         243	1	181	184
         244	3	182	184
         245	2	184	185
         246	4	184	186
         247	1	184	187
         248	3	185	187
         249	2	187	188
         250	4	187	189
         251	1	187	190
         252	3	188	190
         253	2	190	191
         254	4	190	192
         255	1	190	193
         256	3	191	193
         257	2	193	194
         258	4	193	195
         259	1	193	196
         260	3	194	196
         261	2	196	197
         262	4	196	198
         263	1	196	199
         264	3	197	199
         265	2	199	200
         266	4	199	201
         267	1	199	202
         268	3	200	202
         269	2	202	203
         270	4	202	204
         271	1	202	205
         272	3	203	205
         273	2	205	206
         274	4	205	207
         275	1	205	208
         276	3	206	208
         277	2	208	209
         278	4	208	210
         279	1	208	211
         280	3	209	211
         281	2	211	212
         282	4	211	213
         283	1	211	214
         284	3	212	214
         285	2	214	215
         286	4	214	216
         287	1	214	217
         288	3	215	217
         289	2	217	218
         290	4	217	219
         291	1	217	220
         292	3	218	220
         293	2	220	221
         294	4	220	222
         295	1	220	223
         296	3	221	223
         297	2	223	224
         298	4	223	225
         299	1	223	226
         300	3	224	226
         301	2	226	227
         302	4	226	228
         303	1	226	229
         304	3	227	229
         305	2	229	230
         306	5	229	231
         307	1	229	232
         308	3	230	232
         309	2	232	233
         310	4	232	234
         311	1	232	235
         312	3	233	235
         313	2	235	236
         314	4	235	237
         315	1	235	238
         316	3	236	238
         317	2	238	239
         318	4	238	240
         319	1	238	241
         320	3	239	241
         321	2	241	242
         322	4	241	243
         323	1	241	244
         324	3	242	244
         325	2	244	245
         326	4	244	246
         327	1	244	247
         328	3	245	247
         329	2	247	248
         330	4	247	249
         331	1	247	250
         332	3	248	250
         333	2	250	251
         334	5	250	252
         335	1	250	253
         336	3	251	253
         337	2	253	254
         338	4	253	255
         339	1	253	256
         340	3	254	256
         341	2	256	257
         342	4	256	258
         343	1	256	259
         344	3	257	259
         345	2	259	260
         346	4	259	261
         347	1	259	262
         348	3	260	262
         349	2	262	263
         350	4	262	264
         351	1	262	265
         352	3	263	265
         353	2	265	266
         354	4	265	267
         355	1	265	268
         356	3	266	268
         357	2	268	269
         358	4	268	270
         359	1	268	271
         360	3	269	271
         361	2	271	272
         362	4	271	273
         363	1	271	274
         364	3	272	274
         365	2	274	275
         366	4	274	276
         367	1	274	277
         368	3	275	277
         369	2	277	278
         370	4	277	279
         371	1	277	280
         372	3	278	280
         373	2	280	281
         374	4	280	282
         375	1	280	283
         376	3	281	283
         377	2	283	284
         378	4	283	285
         379	1	283	286
         380	3	284	286
         381	2	286	287
         382	4	286	288
         383	1	286	289
         384	3	287	289
         385	2	289	290
         386	4	289	291
         387	1	289	292
         388	3	290	292
         389	2	292	293
         390	4	292	294
         391	1	292	295
         392	3	293	295
         393	2	295	296
         394	4	295	297
         395	1	295	298
         396	3	296	298
         397	2	298	299
         398	4	298	300
         399	1	298	301
         400	3	299	301
         401	2	301	302
         402	4	301	303
         403	1	301	304
         404	3	302	304
         405	2	304	305
         406	4	304	306
         407	1	304	307
         408	3	305	307
         409	2	307	308
         410	4	307	309
         411	1	307	310
         412	3	308	310
         413	2	310	311
         414	4	310	312

