ITEM: TIMESTEP
0
ITEM: NUMBER OF ATOMS
312
ITEM: BOX BOUNDS ss ss ss
30.646 62.596
10.234 36.075
-9.578 20.799
ITEM: ATOMS id type xs ys zs
1 1 0.713396 0.115359 0.16654
2 3 0.784163 0.142216 0.16236
3 5 0.684132 0.0750512 0.220156
4 1 0.771111 0.215394 0.100174
5 3 0.751956 0.296002 0.135201
6 4 0.765102 0.232499 0.0531981
7 1 0.821941 0.292481 0.191724
8 3 0.825008 0.383151 0.193107
9 4 0.854554 0.273054 0.224314
10 1 0.857903 0.398669 0.111235
11 3 0.816088 0.468713 0.0822333
12 4 0.894491 0.399946 0.0799289
13 1 0.753177 0.405131 0.0527043
14 3 0.705383 0.466932 0.086447
15 4 0.729139 0.364034 0.0280804
16 1 0.709484 0.41291 0.168911
17 3 0.695274 0.497775 0.195707
18 5 0.730454 0.339607 0.207439
19 1 0.77928 0.528308 0.199328
20 3 0.750767 0.613212 0.194423
21 4 0.826761 0.535003 0.196366
22 1 0.738967 0.608761 0.103796
23 3 0.683161 0.666228 0.121441
24 4 0.739124 0.59572 0.05491
25 1 0.624163 0.587284 0.137604
26 3 0.598967 0.654619 0.186687
27 4 0.600188 0.534422 0.139678
28 1 0.655869 0.626679 0.252955
29 3 0.637778 0.713053 0.265596
30 4 0.68579 0.600132 0.285084
31 1 0.709484 0.754421 0.218356
32 3 0.664507 0.830115 0.217335
33 4 0.747261 0.754576 0.185864
34 1 0.617496 0.784799 0.145735
35 3 0.553083 0.824542 0.160319
36 4 0.614022 0.755892 0.101063
37 1 0.525978 0.752486 0.218521
38 3 0.491549 0.77377 0.284887
39 4 0.499687 0.705894 0.205649
40 1 0.558091 0.743005 0.338019
41 3 0.577746 0.798421 0.396221
42 4 0.56989 0.689099 0.356487
43 1 0.655743 0.8264 0.354709
44 3 0.661283 0.903293 0.396846
45 4 0.690391 0.831044 0.320308
46 1 0.587762 0.947332 0.36735
47 3 0.572113 0.991138 0.435659
48 4 0.551925 0.959096 0.335155
49 1 0.548482 0.903448 0.47908
50 3 0.555305 0.85968 0.546565
51 4 0.500876 0.895321 0.478619
52 1 0.622911 0.798499 0.520097
53 3 0.683944 0.801827 0.475425
54 4 0.609671 0.742773 0.507884
55 1 0.735775 0.765141 0.549067
56 3 0.709703 0.685306 0.57718
57 4 0.755024 0.79726 0.588307
58 1 0.778905 0.628033 0.551997
59 3 0.823662 0.5773 0.597327
60 4 0.77734 0.592469 0.511472
61 1 0.886291 0.646608 0.604339
62 3 0.860845 0.677218 0.676334
63 4 0.922973 0.674239 0.58304
64 1 0.920595 0.623312 0.72229
65 3 0.947387 0.712589 0.727228
66 4 0.957684 0.589799 0.733153
67 1 0.89615 0.736852 0.795536
68 3 0.889953 0.824581 0.774895
69 5 0.898247 0.686401 0.804597
70 1 0.853083 0.80798 0.69309
71 3 0.793459 0.806857 0.74168
72 5 0.867105 0.75562 0.626097
73 1 0.76723 0.907666 0.716068
74 3 0.716933 0.865795 0.665405
75 4 0.772207 0.96521 0.704052
76 1 0.649358 0.900971 0.719261
77 3 0.648482 0.991989 0.703592
78 4 0.623067 0.896637 0.761069
79 1 0.604664 0.981077 0.625012
80 3 0.54626 0.980341 0.67268
81 4 0.62097 0.968151 0.579945
82 1 0.484507 0.990751 0.607367
83 3 0.450516 0.929918 0.656286
84 4 0.457653 0.998452 0.565132
85 1 0.49108 0.843156 0.621556
86 3 0.56529 0.850315 0.641011
87 5 0.496213 0.722081 0.601137
88 1 0.563912 0.769359 0.696942
89 3 0.599218 0.722534 0.636567
90 4 0.544288 0.727603 0.726339
91 1 0.675336 0.720831 0.676071
92 3 0.642222 0.646763 0.707805
93 4 0.713678 0.73306 0.701748
94 1 0.670767 0.57997 0.64269
95 3 0.694617 0.495917 0.652895
96 4 0.659374 0.572927 0.594002
97 1 0.771581 0.519678 0.687198
98 3 0.729014 0.499594 0.748691
99 4 0.812081 0.542355 0.70583
100 1 0.741941 0.391316 0.739342
101 3 0.680532 0.350451 0.765875
102 5 0.75856 0.311898 0.740869
103 1 0.632238 0.373051 0.692563
104 3 0.590736 0.302504 0.721697
105 4 0.621502 0.393793 0.64483
106 1 0.635243 0.228087 0.666294
107 3 0.673365 0.201501 0.729697
108 4 0.668012 0.210518 0.632222
109 1 0.605822 0.143957 0.76604
110 3 0.578873 0.153167 0.842249
111 5 0.607074 0.0637225 0.751948
112 1 0.562097 0.257498 0.830003
113 3 0.501909 0.260516 0.782599
114 4 0.58795 0.307031 0.823682
115 1 0.448607 0.287798 0.853936
116 3 0.474617 0.374211 0.834842
117 4 0.425571 0.283271 0.897389
118 1 0.390266 0.402422 0.80821
119 3 0.388482 0.435045 0.881983
120 4 0.34529 0.394064 0.787965
121 1 0.406667 0.537324 0.854232
122 3 0.430422 0.556596 0.926787
123 5 0.403067 0.522516 0.822642
124 1 0.5118 0.509307 0.909175
125 3 0.586573 0.524477 0.918063
126 4 0.519468 0.449828 0.913553
127 1 0.589828 0.609806 0.868618
128 3 0.56047 0.672497 0.918985
129 4 0.58651 0.646685 0.829871
130 1 0.625477 0.674742 0.974948
131 3 0.656182 0.741883 0.932581
132 4 0.665321 0.658024 0.998683
133 1 0.61036 0.819782 0.969813
134 3 0.581753 0.888936 0.928663
135 5 0.606385 0.781047 0.938121
136 1 0.523881 0.825819 0.883432
137 3 0.47446 0.777911 0.92728
138 4 0.527543 0.79815 0.838891
139 1 0.410235 0.851902 0.917075
140 3 0.373239 0.858945 0.846989
141 4 0.3923 0.902945 0.937354
142 1 0.342097 0.759491 0.855285
143 3 0.284444 0.77764 0.905027
144 4 0.350548 0.70156 0.85805
145 1 0.224851 0.755892 0.841722
146 3 0.243443 0.672807 0.872239
147 4 0.198404 0.752641 0.798532
148 1 0.173521 0.660462 0.923067
149 3 0.174397 0.569637 0.904138
150 4 0.133615 0.664525 0.950555
151 1 0.139311 0.58206 0.822333
152 3 0.182504 0.506443 0.806597
153 4 0.117621 0.605511 0.782171
154 1 0.252676 0.561472 0.791257
155 3 0.294304 0.493015 0.827139
156 4 0.283787 0.602957 0.774566
157 1 0.286761 0.534345 0.907726
158 3 0.292551 0.448589 0.933371
159 4 0.281033 0.57223 0.944958
160 1 0.198404 0.437715 0.928466
161 3 0.17205 0.357107 0.905422
162 4 0.155649 0.461902 0.939757
163 1 0.197527 0.365737 0.816802
164 3 0.185352 0.273364 0.830793
165 4 0.220469 0.377075 0.774204
166 1 0.257214 0.264154 0.877308
167 3 0.268858 0.17747 0.875893
168 5 0.24338 0.207499 0.876192
169 1 0.307919 0.182655 0.787668
170 3 0.367887 0.235904 0.80212
171 4 0.286792 0.177586 0.742206
172 1 0.425947 0.158701 0.766073
173 3 0.41615 0.144809 0.689469
174 4 0.448889 0.106962 0.778648
175 1 0.475274 0.216555 0.66445
176 3 0.539499 0.165473 0.665471
177 4 0.493427 0.269107 0.656615
178 1 0.516839 0.115011 0.584521
179 3 0.482034 0.154986 0.524574
180 4 0.510329 0.0623428 0.604306
181 1 0.511236 0.101892 0.458538
182 3 0.446573 0.128555 0.422721
183 4 0.533928 0.0645099 0.427231
184 1 0.399781 0.0554545 0.464792
185 3 0.339124 0.105646 0.461402
186 4 0.383537 0.00154793 0.475195
187 1 0.353083 0.160056 0.537018
188 3 0.333458 0.237994 0.49972
189 4 0.353678 0.163306 0.588175
190 1 0.414084 0.261716 0.471574
191 3 0.378873 0.297241 0.408697
192 4 0.461596 0.267211 0.469335
193 1 0.375399 0.205565 0.362906
194 3 0.317934 0.247939 0.328768
195 4 0.377527 0.15042 0.3448
196 1 0.258748 0.223521 0.394739
197 3 0.228419 0.309199 0.385028
198 4 0.237527 0.188151 0.427067
199 1 0.276463 0.354514 0.450044
200 3 0.260219 0.42924 0.404484
201 4 0.30748 0.359622 0.488527
202 1 0.338059 0.417708 0.358067
203 3 0.312551 0.457297 0.294664
204 4 0.383568 0.405751 0.343813
205 1 0.250986 0.385589 0.27906
206 3 0.202692 0.454317 0.262304
207 4 0.230329 0.334933 0.268888
208 1 0.172645 0.467048 0.342726
209 3 0.153239 0.457374 0.418968
210 4 0.130016 0.448473 0.327155
211 1 0.213991 0.527418 0.44853
212 3 0.17374 0.521652 0.515225
213 4 0.246166 0.570682 0.445304
214 1 0.110829 0.58887 0.486059
215 3 0.0548043 0.545993 0.523784
216 4 0.0843505 0.631322 0.466405
217 1 0.0541158 0.46194 0.468907
218 3 0.0453208 0.407802 0.53208
219 4 0.0514867 0.430363 0.427659
220 1 0.130485 0.390349 0.543042
221 3 0.124914 0.387988 0.619679
222 4 0.174648 0.37247 0.529973
223 1 0.14216 0.498665 0.629094
224 3 0.128232 0.589219 0.616651
225 4 0.188482 0.509346 0.643908
226 1 0.0386854 0.57014 0.634164
227 3 0.0497027 0.599125 0.708497
228 4 0.00125196 0.534383 0.642855
229 1 0.0578403 0.702295 0.680317
230 3 0.117465 0.748655 0.703328
231 5 0.0488576 0.667502 0.684465
232 1 0.174022 0.700399 0.649011
233 3 0.153427 0.779033 0.610692
234 4 0.200031 0.662126 0.620305
235 1 0.219969 0.834101 0.630345
236 3 0.260626 0.877946 0.575962
237 4 0.233615 0.866917 0.668104
238 1 0.289264 0.780117 0.537413
239 3 0.235149 0.751712 0.491326
240 4 0.311111 0.7283 0.539948
241 1 0.236088 0.836887 0.433552
242 3 0.293615 0.853798 0.384732
243 4 0.215806 0.891258 0.440201
244 1 0.278623 0.757788 0.338809
245 3 0.229233 0.688983 0.344734
246 4 0.320626 0.735962 0.352964
247 1 0.214147 0.686506 0.253284
248 3 0.196526 0.59839 0.251967
249 4 0.208545 0.707829 0.206801
250 1 0.277277 0.560156 0.254008
251 3 0.304632 0.581827 0.182902
252 5 0.264883 0.455388 0.28481
253 1 0.338341 0.482218 0.168186
254 3 0.306197 0.399094 0.170458
255 4 0.383474 0.466932 0.180433
256 1 0.262942 0.413993 0.0891793
257 3 0.26385 0.321505 0.0926359
258 4 0.243318 0.439147 0.0490503
259 1 0.338153 0.317519 0.0345327
260 3 0.381565 0.3056 0.0989564
261 4 0.372426 0.331721 0.00131679
262 1 0.376182 0.200108 0.0979689
263 3 0.443349 0.208428 0.131481
264 4 0.360563 0.145621 0.0907924
265 1 0.487887 0.201192 0.0538565
266 3 0.542911 0.248558 0.0905949
267 4 0.501972 0.187531 0.0052013
268 1 0.50144 0.341202 0.0869737
269 3 0.532144 0.352386 0.159891
270 4 0.477152 0.387175 0.0710077
271 1 0.468576 0.307728 0.203773
272 3 0.52457 0.279556 0.250123
273 4 0.426448 0.288921 0.220627
274 1 0.543662 0.19291 0.20025
275 3 0.613552 0.205294 0.227969
276 4 0.542097 0.144847 0.17105
277 1 0.63493 0.274641 0.160878
278 3 0.674398 0.303587 0.221549
279 4 0.636275 0.300956 0.116503
280 1 0.615399 0.377036 0.249498
281 3 0.649421 0.362834 0.319057
282 4 0.578216 0.414187 0.249037
283 1 0.610016 0.273828 0.34164
284 3 0.675712 0.253628 0.376403
285 4 0.576588 0.231415 0.351779
286 1 0.713427 0.214117 0.305363
287 3 0.771612 0.249913 0.342002
288 4 0.721471 0.183584 0.263653
289 1 0.763599 0.349793 0.309346
290 3 0.793396 0.371309 0.37986
291 4 0.759343 0.397972 0.279422
292 1 0.715055 0.378933 0.421635
293 3 0.752457 0.358655 0.487737
294 4 0.668044 0.381332 0.431149
295 1 0.751393 0.252041 0.475228
296 3 0.817371 0.254982 0.516114
297 4 0.743192 0.199373 0.454258
298 1 0.861064 0.285593 0.438128
299 3 0.897997 0.332804 0.493828
300 4 0.869922 0.29252 0.388583
301 1 0.86169 0.427538 0.469434
302 3 0.86651 0.465268 0.5411
303 4 0.843192 0.467552 0.437469
304 1 0.796275 0.421694 0.573987
305 3 0.812926 0.398166 0.647562
306 4 0.74698 0.416547 0.576555
307 1 0.864695 0.320344 0.631958
308 3 0.933552 0.311985 0.661751
309 4 0.854773 0.263573 0.628469
310 1 0.967387 0.381525 0.590842
311 3 0.977997 0.303162 0.548342
312 4 0.998748 0.386014 0.628732
ITEM: TIMESTEP
1000
ITEM: NUMBER OF ATOMS
312
ITEM: BOX BOUNDS ss ss ss
30.646 62.596
10.234 36.075
-9.578 20.799
ITEM: ATOMS id type xs ys zs
1 1 0.767503 0.155641 0.114458
2 3 0.839787 0.186466 0.11096
3 5 0.722339 0.165317 0.105452
4 1 0.833086 0.263635 0.0656352
5 3 0.807318 0.335659 0.106649
6 4 0.82607 0.286608 0.0203489
7 1 0.867636 0.34864 0.160895
8 3 0.8609 0.438973 0.160474
9 4 0.902944 0.331 0.190911
10 1 0.890641 0.458472 0.0831478
11 3 0.833764 0.519066 0.0630561
12 4 0.920801 0.463387 0.0460055
13 1 0.786955 0.454564 0.0275772
14 3 0.723787 0.473631 0.0710699
15 4 0.770414 0.411824 -0.00123976
16 1 0.748064 0.446431 0.144557
17 3 0.737077 0.513785 0.198403
18 5 0.714287 0.480096 0.124321
19 1 0.798493 0.572814 0.175905
20 3 0.778506 0.662783 0.161052
21 4 0.845413 0.578022 0.18141
22 1 0.748151 0.647661 0.0858283
23 3 0.682528 0.688114 0.104933
24 4 0.750498 0.639983 0.0375874
25 1 0.6403 0.607026 0.120876
26 3 0.604597 0.641682 0.183441
27 4 0.624832 0.552217 0.114476
28 1 0.664999 0.645646 0.236468
29 3 0.664211 0.731467 0.262655
30 4 0.696455 0.619603 0.266405
31 1 0.70345 0.77876 0.205235
32 3 0.650877 0.842662 0.190531
33 4 0.74007 0.784465 0.176412
34 1 0.608697 0.79777 0.136488
35 3 0.538042 0.82058 0.158208
36 4 0.606697 0.775453 0.0902391
37 1 0.521272 0.745595 0.207125
38 3 0.493004 0.768923 0.278573
39 4 0.50201 0.693927 0.193636
40 1 0.553057 0.735989 0.324971
41 3 0.576321 0.795726 0.380786
42 4 0.56695 0.681709 0.341324
43 1 0.63922 0.833081 0.34198
44 3 0.631047 0.91491 0.378578
45 4 0.672597 0.851678 0.307757
46 1 0.556376 0.933903 0.360495
47 3 0.535358 0.96576 0.429876
48 4 0.518407 0.939498 0.329013
49 1 0.526105 0.881295 0.472853
50 3 0.537317 0.808551 0.522782
51 4 0.47744 0.866628 0.471497
52 1 0.613136 0.795909 0.510696
53 3 0.681429 0.81927 0.483965
54 4 0.602316 0.739123 0.493466
55 1 0.725976 0.774552 0.537817
56 3 0.731386 0.694893 0.583431
57 4 0.738445 0.813012 0.574763
58 1 0.787789 0.651563 0.537625
59 3 0.849589 0.611 0.564909
60 4 0.784226 0.616358 0.498538
61 1 0.889864 0.684226 0.591876
62 3 0.86133 0.688459 0.663246
63 4 0.916595 0.728747 0.575549
64 1 0.92367 0.661271 0.707494
65 3 0.942371 0.750862 0.724723
66 4 0.963691 0.634347 0.721015
67 1 0.891299 0.765405 0.784074
68 3 0.883558 0.8476 0.746341
69 5 0.930634 0.778658 0.811018
70 1 0.830629 0.826053 0.690846
71 3 0.774085 0.842029 0.739464
72 5 0.805507 0.869789 0.66936
73 1 0.745256 0.921974 0.70481
74 3 0.692772 0.872804 0.667569
75 4 0.747934 0.977285 0.689568
76 1 0.627741 0.903491 0.707639
77 3 0.6228 0.99255 0.688279
78 4 0.604755 0.897532 0.749836
79 1 0.576288 0.982159 0.619833
80 3 0.512385 0.967603 0.654403
81 4 0.597534 0.971836 0.572971
82 1 0.460981 0.979411 0.59252
83 3 0.4182 0.908523 0.607981
84 4 0.446809 1.00336 0.549006
85 1 0.472602 0.836118 0.610144
86 3 0.537929 0.851026 0.644813
87 5 0.517923 0.850281 0.620798
88 1 0.546007 0.7621 0.68223
89 3 0.591772 0.736792 0.624131
90 4 0.527159 0.720589 0.716035
91 1 0.656196 0.722142 0.66585
92 3 0.641111 0.639614 0.695315
93 4 0.695075 0.741611 0.697988
94 1 0.667504 0.583278 0.6329
95 3 0.735143 0.546774 0.609167
96 4 0.644808 0.572495 0.58826
97 1 0.765071 0.525142 0.679532
98 3 0.755344 0.48977 0.747857
99 4 0.800502 0.561648 0.693664
100 1 0.737067 0.397632 0.733303
101 3 0.669058 0.374007 0.760324
102 5 0.745167 0.352236 0.765643
103 1 0.632496 0.376908 0.688867
104 3 0.591746 0.299631 0.694608
105 4 0.617541 0.39761 0.644704
106 1 0.638515 0.233526 0.663493
107 3 0.673769 0.185364 0.720328
108 4 0.665762 0.21297 0.627123
109 1 0.6108 0.144876 0.757195
110 3 0.618269 0.182362 0.828784
111 5 0.65778 0.121208 0.762137
112 1 0.562644 0.252736 0.824364
113 3 0.495365 0.261101 0.790645
114 4 0.583046 0.306423 0.819011
115 1 0.450736 0.28329 0.856441
116 3 0.462442 0.368723 0.834699
117 4 0.430773 0.273724 0.898301
118 1 0.392213 0.395485 0.811836
119 3 0.378276 0.445942 0.877093
120 4 0.346623 0.384946 0.790822
121 1 0.406905 0.52986 0.856188
122 3 0.438861 0.53881 0.930076
123 5 0.377556 0.493026 0.836046
124 1 0.508982 0.500946 0.913481
125 3 0.577404 0.535409 0.927655
126 4 0.518782 0.443843 0.910756
127 1 0.585004 0.604466 0.874052
128 3 0.5578 0.666054 0.927128
129 4 0.58091 0.639875 0.83311
130 1 0.624304 0.670898 0.975053
131 3 0.650752 0.749497 0.940442
132 4 0.662785 0.652397 1.00126
133 1 0.604656 0.81399 0.976523
134 3 0.568962 0.876306 0.928929
135 5 0.629698 0.775794 0.947331
136 1 0.516036 0.819193 0.894705
137 3 0.462317 0.774807 0.933207
138 4 0.522839 0.790582 0.852264
139 1 0.404417 0.84034 0.930969
140 3 0.376836 0.837013 0.858982
141 4 0.388725 0.892689 0.946667
142 1 0.338312 0.749947 0.861994
143 3 0.276021 0.760032 0.910111
144 4 0.350215 0.689679 0.860418
145 1 0.22075 0.742902 0.854642
146 3 0.224491 0.65074 0.874991
147 4 0.197584 0.745599 0.809924
148 1 0.168426 0.648748 0.930931
149 3 0.155418 0.562308 0.908366
150 4 0.132323 0.65932 0.963046
151 1 0.135429 0.570542 0.830157
152 3 0.181297 0.499751 0.807316
153 4 0.113242 0.599105 0.790914
154 1 0.247791 0.552097 0.795366
155 3 0.28675 0.488776 0.835491
156 4 0.277311 0.594413 0.780292
157 1 0.282451 0.523658 0.912069
158 3 0.267635 0.441874 0.947152
159 4 0.280524 0.56305 0.947504
160 1 0.193771 0.431014 0.928647
161 3 0.171681 0.350334 0.899681
162 4 0.150477 0.454786 0.940701
163 1 0.192724 0.357305 0.821599
164 3 0.197685 0.266143 0.81921
165 4 0.209677 0.373415 0.777064
166 1 0.251707 0.255337 0.879947
167 3 0.261034 0.167758 0.856031
168 5 0.240937 0.208937 0.853179
169 1 0.30196 0.179613 0.78617
170 3 0.366954 0.220772 0.776921
171 4 0.278447 0.1762 0.742953
172 1 0.416266 0.149312 0.767594
173 3 0.407467 0.141393 0.686774
174 4 0.437662 0.0979767 0.780126
175 1 0.464218 0.200929 0.663952
176 3 0.520948 0.140772 0.655223
177 4 0.485225 0.25567 0.661232
178 1 0.501276 0.0982384 0.583967
179 3 0.465578 0.139102 0.524299
180 4 0.491761 0.0441482 0.602295
181 1 0.495961 0.088848 0.459275
182 3 0.434612 0.103475 0.418663
183 4 0.525319 0.0549487 0.428796
184 1 0.384518 0.0483504 0.462253
185 3 0.322395 0.0998945 0.470252
186 4 0.36981 -0.00616423 0.476856
187 1 0.343185 0.153757 0.53563
188 3 0.33756 0.244487 0.516515
189 4 0.345834 0.153482 0.586019
190 1 0.404827 0.253176 0.470706
191 3 0.382693 0.283852 0.401837
192 4 0.452671 0.254878 0.471063
193 1 0.365109 0.203319 0.363444
194 3 0.30233 0.234245 0.328769
195 4 0.36977 0.145132 0.347037
196 1 0.253279 0.228121 0.394276
197 3 0.221381 0.312283 0.401728
198 4 0.231556 0.191666 0.426978
199 1 0.275128 0.355829 0.449908
200 3 0.281476 0.437804 0.414978
201 4 0.302285 0.353544 0.493357
202 1 0.333987 0.413362 0.354783
203 3 0.302446 0.451565 0.292773
204 4 0.378468 0.397429 0.3441
205 1 0.244026 0.388275 0.279913
206 3 0.187415 0.448274 0.26942
207 4 0.225879 0.33691 0.270348
208 1 0.172413 0.473808 0.347781
209 3 0.167901 0.457811 0.425382
210 4 0.127614 0.458599 0.334809
211 1 0.213819 0.528034 0.454604
212 3 0.17299 0.538258 0.518186
213 4 0.249648 0.570829 0.455489
214 1 0.116334 0.596577 0.491869
215 3 0.0588403 0.549876 0.521494
216 4 0.0944258 0.643061 0.46828
217 1 0.056975 0.472854 0.47414
218 3 0.052595 0.404188 0.527047
219 4 0.0500719 0.44892 0.429367
220 1 0.126703 0.393416 0.546527
221 3 0.127835 0.395996 0.626759
222 4 0.167774 0.369784 0.530047
223 1 0.142843 0.49148 0.635584
224 3 0.121799 0.578179 0.613418
225 4 0.187467 0.507249 0.645349
226 1 0.0449419 0.578321 0.640521
227 3 0.0660732 0.612687 0.710304
228 4 0.00194299 0.55301 0.641701
229 1 0.0688501 0.707562 0.691889
230 3 0.134311 0.732392 0.717502
231 5 0.0905292 0.752685 0.71431
232 1 0.183468 0.69811 0.65639
233 3 0.183932 0.768119 0.608109
234 4 0.202449 0.656589 0.630373
235 1 0.239143 0.823824 0.645428
236 3 0.279958 0.855265 0.587584
237 4 0.26075 0.853058 0.684964
238 1 0.303291 0.774233 0.54935
239 3 0.24629 0.757631 0.498739
240 4 0.321592 0.717722 0.549563
241 1 0.256974 0.828676 0.444378
242 3 0.30528 0.841579 0.382667
243 4 0.245046 0.887093 0.456722
244 1 0.304948 0.753882 0.351055
245 3 0.253959 0.688511 0.347474
246 4 0.346575 0.726784 0.369077
247 1 0.234489 0.689773 0.264976
248 3 0.221297 0.598595 0.254295
249 4 0.234566 0.714318 0.22076
250 1 0.292508 0.561982 0.259638
251 3 0.320708 0.567466 0.186623
252 5 0.282695 0.506925 0.281115
253 1 0.349241 0.478416 0.177801
254 3 0.300844 0.404936 0.178152
255 4 0.392237 0.455459 0.192184
256 1 0.275467 0.410848 0.0993676
257 3 0.271791 0.319634 0.0794736
258 4 0.259671 0.44021 0.0570795
259 1 0.34388 0.313106 0.0445077
260 3 0.370817 0.283476 0.112633
261 4 0.378642 0.325566 0.0126442
262 1 0.374975 0.191297 0.105554
263 3 0.443845 0.173248 0.132239
264 4 0.351739 0.141894 0.0932816
265 1 0.485493 0.184636 0.0644533
266 3 0.543665 0.236298 0.0943545
267 4 0.495839 0.170437 0.0170209
268 1 0.50689 0.320049 0.101639
269 3 0.526326 0.335517 0.176031
270 4 0.482496 0.368792 0.0839338
271 1 0.470665 0.288815 0.217162
272 3 0.512395 0.23802 0.26651
273 4 0.426133 0.275579 0.231343
274 1 0.537775 0.166876 0.214035
275 3 0.612634 0.169903 0.233713
276 4 0.529443 0.120634 0.184878
277 1 0.63282 0.239571 0.178374
278 3 0.674982 0.288839 0.2321
279 4 0.637977 0.264738 0.133328
280 1 0.617348 0.33876 0.269157
281 3 0.641036 0.327257 0.345352
282 4 0.583569 0.381203 0.266424
283 1 0.604159 0.241617 0.360505
284 3 0.664643 0.207044 0.395037
285 4 0.569192 0.201107 0.361836
286 1 0.702424 0.171382 0.328585
287 3 0.772834 0.200394 0.348264
288 4 0.708968 0.140395 0.285056
289 1 0.761342 0.294789 0.333034
290 3 0.784046 0.331879 0.403573
291 4 0.758104 0.340842 0.303029
292 1 0.716126 0.331814 0.442736
293 3 0.746541 0.297484 0.5083
294 4 0.669083 0.343078 0.448793
295 1 0.740778 0.202156 0.492803
296 3 0.810786 0.186174 0.516997
297 4 0.723569 0.153549 0.476696
298 1 0.854416 0.222109 0.45848
299 3 0.901039 0.275689 0.4989
300 4 0.861872 0.225089 0.409057
301 1 0.863433 0.360459 0.493062
302 3 0.862195 0.402822 0.561503
303 4 0.847159 0.403665 0.463967
304 1 0.800058 0.362459 0.59585
305 3 0.82423 0.346326 0.667696
306 4 0.753267 0.35467 0.595577
307 1 0.851094 0.25809 0.657179
308 3 0.921125 0.254572 0.685912
309 4 0.843401 0.19955 0.648259
310 1 0.95731 0.299656 0.624691
311 3 0.953329 0.378209 0.672389
312 4 0.982262 0.298544 0.667893
