LAMMPS protain data file

         459  atoms
         610  bonds
           0  angles
           0  dihedrals
           0  impropers

           5  atom types
           5  bond types
           0  angle types
           0  dihedral types
           0  improper types

-200.0	200.0	xlo xhi
-200.0	200.0	ylo yhi
-200.0	200.0	zlo zhi

Masses

           1	27.0
           2	14.0
           3	28.0
           4	60.0
           5	60.0

Atoms

           1	1	1	1	0.0	-3.77800012	14.51900005	15.8579998
           2	1	1	3	0.0	-2.30200005	12.72200012	15.27299976
           3	1	1	4	0.0	-4.24800014	14.60299969	17.34900093
           4	1	2	1	0.0	-0.41100001	13.66300011	17.15999985
           5	1	2	3	0.0	-1.59000003	14.49699974	19.03100014
           6	1	2	4	0.0	0.90700001	14.43099976	17.21199989
           7	1	3	1	0.0	-1.30799997	12.19799995	20.53300095
           8	1	3	3	0.0	0.94400001	12.91499996	20.94099998
           9	1	3	4	0.0	-1.505	10.74199963	20.87999916
          10	1	4	1	0.0	0.51099998	13.23700047	23.68600082
          11	1	4	3	0.0	2.87700009	12.76200008	23.41699982
          12	1	4	4	0.0	-0.107	13.21100044	25.07799911
          13	1	5	1	0.0	2.41000009	10.00699997	23.36899948
          14	1	5	3	0.0	4.57999992	10.18999958	22.43799973
          15	1	5	5	0.0	1.40900004	8.240388	22.45266995
          16	1	6	1	0.0	3.70900011	10.73600006	19.9090004
          17	1	6	3	0.0	5.59200001	12.11800003	19.33699989
          18	1	6	4	0.0	2.92499995	10.59899998	18.59300041
          19	1	7	1	0.0	4.6329999	14.3579998	20.60899925
          20	1	7	3	0.0	6.94299984	14.51000023	21.23900032
          21	1	7	4	0.0	3.78900003	15.47200012	21.1989994
          22	1	8	1	0.0	6.62300014	12.8739996	23.45100021
          23	1	8	3	0.0	8.93400002	12.57600021	22.89500046
          24	1	8	4	0.0	6.07999992	12.02099991	24.58499908
          25	1	9	1	0.0	8.53199959	10.59500027	21.14999962
          26	1	9	3	0.0	10.45899963	11.54399967	20.09199905
          27	1	9	4	0.0	8.05200005	9.4289999	20.29100037
          28	1	10	1	0.0	9.1079998	13.61600018	18.9659996
          29	1	10	3	0.0	11.25500011	14.69099998	19.23900032
          30	1	10	4	0.0	8.03299999	14.49600029	18.30999947
          31	1	11	1	0.0	10.47200012	15.94699955	21.60199928
          32	1	11	3	0.0	12.66100025	15.85999966	22.5189991
          33	1	11	4	0.0	9.52499962	16.6989994	22.54899979
          34	1	12	1	0.0	12.51399994	13.20800018	23.2840004
          35	1	12	3	0.0	14.84700012	13.26799965	22.86800003
          36	1	12	4	0.0	12.03100014	11.80799961	23.65600014
          37	1	13	1	0.0	14.68599987	12.79800034	20.20899963
          38	1	13	3	0.0	16.3220005	14.28299999	19.36599922
          39	1	13	4	0.0	14.47599983	11.75399971	19.0739994
          40	1	14	1	0.0	14.74800014	16.45999908	19.35499954
          41	1	14	3	0.0	16.70800018	17.68300056	20.00200081
          42	1	14	4	0.0	13.63599968	17.47999954	19.23699951
          43	1	15	1	0.0	16.34600067	17.04500008	22.80800056
          44	1	15	3	0.0	18.73399925	17.14500046	23.09399986
          45	1	15	4	0.0	15.72500038	16.55999947	24.13800049
          46	1	16	1	0.0	19.32299995	15.01099968	21.55800056
          47	1	16	3	0.0	20.83099937	14.95699978	19.67099953
          48	1	16	4	0.0	19.48699951	13.49499989	21.75600052
          49	1	17	1	0.0	19.51799965	16.96299934	18.27300072
          50	1	17	3	0.0	20.86400032	18.94300079	18.32900047
          51	1	17	4	0.0	18.47699928	17.31200027	17.10499954
          52	1	18	1	0.0	19.69499969	19.86300087	20.72599983
          53	1	18	3	0.0	21.80500031	20.93600082	21.34399986
          54	1	18	4	0.0	18.67499924	20.03700066	21.84399986
          55	1	19	1	0.0	23.04400063	18.53899956	22.0
          56	1	19	3	0.0	25.30500031	18.55999947	21.23699951
          57	1	19	4	0.0	23.15200043	17.15800095	22.63199997
          58	1	20	1	0.0	24.70599937	19.09000015	18.63999939
          59	1	20	3	0.0	23.97699928	18.99799919	16.34799957
          60	1	20	4	0.0	25.53800011	17.84900093	18.2859993
          61	1	21	1	0.0	22.43000031	21.32900047	16.64500046
          62	1	21	3	0.0	22.65399933	21.23900032	14.22599983
          63	1	21	4	0.0	21.89699936	22.68899918	17.21800041
          64	1	22	1	0.0	25.19300079	22.24900055	14.25599957
          65	1	22	3	0.0	25.74900055	21.30800056	12.13700008
          66	1	22	4	0.0	26.34799957	23.1609993	14.70699978
          67	1	23	1	0.0	26.49500084	18.85000038	13.06499958
          68	1	23	3	0.0	25.32500076	17.64800072	11.29199982
          69	1	23	5	0.0	26.03300095	17.04031464	11.81772636
          70	1	24	1	0.0	22.93400002	17.69199944	12.67099953
          71	1	24	3	0.0	22.09000015	18.04700089	10.44299984
          72	1	24	4	0.0	21.92300034	17.75699997	13.79100037
          73	1	25	1	0.0	22.00399971	20.74399948	10.58600044
          74	1	25	3	0.0	22.3920002	20.58099937	8.22700024
          75	1	25	5	0.0	22.51499939	20.34413765	9.66553512
          76	1	26	1	0.0	25.0909996	20.19199944	8.54599953
          77	1	26	3	0.0	24.96299934	18.8390007	6.52699995
          78	1	26	4	0.0	26.47200012	20.26799965	9.18400002
          79	1	27	1	0.0	24.31900024	16.51300049	7.83900023
          80	1	27	3	0.0	23.05599976	16.22100067	5.78000021
          81	1	27	4	0.0	24.13699913	15.42199993	8.89400005
          82	1	28	1	0.0	20.74500084	17.36400032	6.85300016
          83	1	28	3	0.0	20.35199928	17.68099976	4.46700001
          84	1	28	4	0.0	19.71899986	17.9659996	7.81899977
          85	1	29	1	0.0	21.60499954	20.12000084	4.42799997
          86	1	29	3	0.0	22.27599907	19.77000046	2.14299989
          87	1	29	4	0.0	22.09499931	21.51399994	4.82700014
          88	1	30	1	0.0	24.23399925	17.93600082	2.73300004
          89	1	30	3	0.0	23.51499939	16.52499962	0.88800001
          90	1	30	4	0.0	25.6060009	17.4829998	3.40799999
          91	1	31	1	0.0	21.86000061	14.93999958	2.53200006
          92	1	31	3	0.0	20.94199944	15.18500042	0.29499999
          93	1	31	4	0.0	21.11599922	14.45100021	3.80100012
          94	1	32	1	0.0	19.42200089	17.43799973	0.81400001
          95	1	32	3	0.0	19.53800011	17.47900009	-1.57500005
          96	1	32	4	0.0	18.92399979	18.74799919	1.403
          97	1	33	1	0.0	21.86800003	18.95999908	-1.65699995
          98	1	33	3	0.0	22.4279995	17.92000008	-3.75500011
          99	1	33	4	0.0	23.04800034	19.88800049	-1.30400002
         100	1	34	1	0.0	23.18899918	15.54199982	-2.44300008
         101	1	34	3	0.0	22.13999939	14.36299992	-4.34899998
         102	1	34	4	0.0	23.90200043	14.72099972	-1.35000002
         103	1	35	1	0.0	19.88400078	13.66300011	-3.0
         104	1	35	3	0.0	18.68300056	13.97299957	-4.99800014
         105	1	35	4	0.0	18.89500046	13.25800037	-1.90400004
         106	1	36	1	0.0	18.24099922	16.67399979	-4.671
         107	1	36	3	0.0	18.59900093	19.06900024	-4.61100006
         108	1	36	4	0.0	16.9109993	16.97800064	-3.94899988
         109	1	37	1	0.0	20.79899979	18.99200058	-6.39499998
         110	1	37	3	0.0	20.81800079	21.40399933	-6.75299978
         111	1	37	4	0.0	21.71899986	18.36800003	-7.45800018
         112	1	38	1	0.0	18.24500084	21.39900017	-7.78900003
         113	1	38	3	0.0	17.29100037	23.34600067	-6.76300001
         114	1	38	4	0.0	16.96800041	20.93300056	-8.54500008
         115	1	39	1	0.0	17.70100021	22.51799965	-4.18400002
         116	1	39	3	0.0	18.58799934	24.64999962	-3.35299993
         117	1	39	4	0.0	17.55500031	21.60700035	-2.91100001
         118	1	40	1	0.0	21.18199921	24.01799965	-4.04400015
         119	1	40	3	0.0	21.52700043	26.34499931	-4.36000013
         120	1	40	4	0.0	22.47400093	23.2840004	-4.39099979
         121	1	41	1	0.0	20.15699959	26.33600044	-6.90799999
         122	1	41	3	0.0	19.17700005	28.54299927	-6.81599998
         123	1	41	4	0.0	19.44199944	25.79599953	-8.14400005
         124	1	42	1	0.0	17.82099915	28.02099991	-4.41800022
         125	1	42	3	0.0	18.3010006	29.97500038	-3.079
         126	1	42	4	0.0	16.74799919	27.28199959	-3.63499999
         127	1	43	1	0.0	20.77799988	29.18799973	-2.33299994
         128	1	43	3	0.0	22.70499992	29.11800003	-3.73600006
         129	1	43	4	0.0	21.40600014	28.33799934	-1.20899999
         130	1	44	1	0.0	22.98699951	31.83799934	-3.78800011
         131	1	44	3	0.0	25.37899971	31.44000053	-3.89199996
         132	1	44	4	0.0	22.6420002	33.31999969	-3.82200003
         133	1	45	1	0.0	25.72599983	31.34900093	-1.171
         134	1	45	3	0.0	27.64800072	29.85400009	-1.36600006
         135	1	45	4	0.0	25.55999947	31.53800011	0.322
         136	1	46	1	0.0	26.02599907	27.61300087	-1.59500003
         137	1	46	3	0.0	26.77599907	25.90600014	-3.11400008
         138	1	46	4	0.0	24.97100067	26.84900093	-0.81800002
         139	1	47	1	0.0	26.3220005	27.18899918	-5.29799986
         140	1	47	3	0.0	28.0739994	26.60199928	-6.78299999
         141	1	47	4	0.0	25.34700012	27.7859993	-6.32600021
         142	1	48	1	0.0	30.09900093	27.40099907	-5.15700006
         143	1	48	3	0.0	31.58799934	25.51000023	-5.0170002
         144	1	48	4	0.0	31.00099945	28.49099922	-4.53599977
         145	1	49	1	0.0	29.93099976	24.15699959	-3.13000011
         146	1	49	3	0.0	28.56599998	22.27000046	-3.77600002
         147	1	49	4	0.0	29.11400032	24.15399933	-1.824
         148	1	50	1	0.0	30.40399933	21.42900085	-5.76200008
         149	1	50	3	0.0	29.54000092	19.35499954	-4.86899996
         150	1	50	4	0.0	31.45899963	21.48800087	-6.85400009
         151	1	51	1	0.0	31.88100052	18.59900093	-3.71700001
         152	1	51	3	0.0	31.06100082	19.55699921	-1.65999997
         153	1	51	4	0.0	33.35499954	18.35899925	-3.71300006
         154	1	52	1	0.0	30.88400078	17.21999931	-0.347
         155	1	52	3	0.0	31.44400024	18.35199928	1.71500003
         156	1	52	4	0.0	30.54700089	15.77900028	-0.016
         157	1	53	1	0.0	34.20899963	18.07600021	1.35699999
         158	1	53	3	0.0	33.86000061	20.13500023	2.57999992
         159	1	53	4	0.0	35.60699844	17.70899963	0.875
         160	1	54	1	0.0	33.68899918	21.71199989	0.361
         161	1	54	3	0.0	32.55599976	22.84700012	2.17600012
         162	1	54	4	0.0	33.51499939	22.23600006	-1.05400002
         163	1	55	1	0.0	30.22900009	21.52300072	1.88399994
         164	1	55	3	0.0	30.04999924	22.1060009	4.22700024
         165	1	55	4	0.0	29.07900047	20.56399918	1.53799999
         166	1	56	1	0.0	31.50900078	20.06800079	5.13500023
         167	1	56	3	0.0	32.27600098	21.56800079	6.88399982
         168	1	56	4	0.0	32.06900024	18.65800095	5.37900019
         169	1	57	1	0.0	34.19599915	22.79400063	5.29400015
         170	1	57	3	0.0	34.06100082	24.99099922	6.1869998
         171	1	57	4	0.0	35.39899826	22.8239994	4.36999989
         172	1	58	1	0.0	31.83300018	25.72999954	4.71000004
         173	1	58	3	0.0	30.32999992	25.37299919	6.53299999
         174	1	58	4	0.0	30.74099922	25.82900047	3.65300012
         175	1	59	1	0.0	31.19000053	27.61000061	7.93499994
         176	1	59	3	0.0	28.93700027	28.11499977	8.68500042
         177	1	59	4	0.0	32.25500107	28.59399986	8.47399998
         178	1	60	1	0.0	28.45100021	29.64900017	6.31599998
         179	1	60	3	0.0	26.28300095	28.68600082	6.86600018
         180	1	60	4	0.0	28.79700089	30.3579998	5.00699997
         181	1	61	1	0.0	26.58300018	26.37999916	5.42700005
         182	1	61	3	0.0	24.9640007	25.59499931	7.11499977
         183	1	61	4	0.0	27.10300064	25.27300072	4.48699999
         184	1	62	1	0.0	26.86899948	25.2670002	9.04399967
         185	1	62	3	0.0	25.15800095	25.76099968	10.61499977
         186	1	62	4	0.0	28.1970005	24.95000076	9.79699993
         187	1	63	1	0.0	25.43099976	28.53499985	10.36400032
         188	1	63	3	0.0	23.01799965	28.47900009	10.73900032
         189	1	63	4	0.0	25.98200035	29.94599915	10.07299995
         190	1	64	1	0.0	22.43600082	28.06200027	8.07999992
         191	1	64	3	0.0	20.5890007	27.02499962	9.22099972
         192	1	64	4	0.0	22.44300079	27.92099953	6.53499985
         193	1	65	1	0.0	21.85099983	24.53800011	9.39400005
         194	1	65	3	0.0	20.3390007	24.34199905	11.22399998
         195	1	65	5	0.0	22.4090004	21.68170821	8.48118086
         196	1	66	1	0.0	21.75	26.04400063	12.86100006
         197	1	66	3	0.0	19.55999947	26.50900078	13.53100014
         198	1	66	4	0.0	22.84600067	26.80599976	13.67099953
         199	1	67	1	0.0	19.1590004	28.58300018	11.70899963
         200	1	67	3	0.0	16.90099907	27.9489994	12.09000015
         201	1	67	4	0.0	19.27400017	29.62299919	10.54500008
         202	1	68	1	0.0	16.81800079	25.95199966	10.17500019
         203	1	68	3	0.0	15.1960001	24.95100021	11.55599976
         204	1	68	4	0.0	17.14599991	25.05500031	8.99300003
         205	1	69	1	0.0	17.09600067	23.43000031	12.98099995
         206	1	69	3	0.0	15.66899967	23.51199913	14.87199974
         207	1	69	4	0.0	18.32500076	22.52899933	13.28600025
         208	1	70	1	0.0	16.40299988	25.94400024	15.72500038
         209	1	70	3	0.0	14.30799961	26.77700043	16.42499924
         210	1	70	4	0.0	17.34700012	26.93400002	16.44300079
         211	1	71	1	0.0	13.4460001	27.42099953	13.84700012
         212	1	71	3	0.0	11.55500031	26.13800049	14.57600021
         213	1	71	4	0.0	13.41800022	28.05699921	12.45400047
         214	1	72	1	0.0	12.28899956	23.84799957	13.30599976
         215	1	72	3	0.0	10.73400021	23.22900009	14.97299957
         216	1	72	4	0.0	13.00199986	22.7140007	12.56000042
         217	1	73	1	0.0	12.71800041	22.92700005	16.8920002
         218	1	73	3	0.0	10.99600029	23.18799973	18.45700073
         219	1	73	5	0.0	12.90100002	20.47054238	16.60375406
         220	1	74	1	0.0	10.86699963	26.01000023	18.11199951
         221	1	74	3	0.0	8.44999981	25.95199966	18.44499969
         222	1	74	4	0.0	11.24300003	27.40299988	17.67300034
         223	1	75	1	0.0	7.95499992	24.79100037	15.97599983
         224	1	75	3	0.0	6.38999987	23.37299919	17.04800034
         225	1	75	4	0.0	7.92199993	24.6060009	14.43200016
         226	1	76	1	0.0	8.06900024	21.18899918	17.24399948
         227	1	76	3	0.0	6.54799986	20.86899948	19.01199913
         228	1	76	4	0.0	9.19900036	20.13899994	17.18499947
         229	1	77	1	0.0	7.96799994	22.25600052	20.87000084
         230	1	77	3	0.0	6.08900023	23.07799911	22.09900093
         231	1	77	4	0.0	8.96800041	23.10700035	21.61899948
         232	1	78	1	0.0	4.83199978	24.17900085	20.05999947
         233	1	78	3	0.0	2.59500003	23.47299957	20.31200027
         234	1	78	4	0.0	4.72900009	25.27899933	19.00900078
         235	1	79	1	0.0	3.18600011	20.87199974	19.21100044
         236	1	79	3	0.0	0.94999999	21.4640007	19.9640007
         237	1	79	4	0.0	3.36400008	19.82500076	20.31699944
         238	1	80	1	0.0	-0.16	21.3029995	17.53199959
         239	1	80	3	0.0	-0.152	23.30500031	16.20800018
         240	1	80	5	0.0	1.245	19.28613484	16.30249237
         241	1	81	1	0.0	-0.62300003	24.98999977	18.28899956
         242	1	81	3	0.0	1.45200002	26.16200066	18.64999962
         243	1	81	4	0.0	-1.17200005	25.58699989	19.60400009
         244	1	82	1	0.0	2.18899989	26.20599937	16.07699966
         245	1	82	3	0.0	3.09899998	27.63299942	14.38300037
         246	1	82	4	0.0	3.08800006	25.04899979	15.58300018
         247	1	83	1	0.0	0.72100002	29.13199997	14.11699963
         248	1	83	3	0.0	2.22300005	30.72999954	13.125
         249	1	83	4	0.0	-0.755	29.56999969	14.22799969
         250	1	84	1	0.0	2.64599991	32.1590004	15.44999981
         251	1	84	3	0.0	4.56099987	32.95800018	14.20300007
         252	1	84	4	0.0	2.81999993	32.48300171	16.94300079
         253	1	85	1	0.0	5.95699978	30.61400032	14.34700012
         254	1	85	3	0.0	7.10599995	30.12299919	12.3409996
         255	1	85	4	0.0	6.671	29.57999992	15.20400047
         256	1	86	1	0.0	4.89300013	28.91399956	11.16100025
         257	1	86	3	0.0	5.04300022	29.88800049	8.94999981
         258	1	86	4	0.0	3.93700004	27.70100021	11.25800037
         259	1	87	1	0.0	3.29099989	31.95999908	9.54599953
         260	1	87	3	0.0	4.50099993	32.75	7.64599991
         261	1	87	4	0.0	2.28200006	32.92499924	10.20600033
         262	1	88	1	0.0	6.43400002	34.11999893	9.09500027
         263	1	88	3	0.0	7.67399979	33.73199844	7.06400013
         264	1	88	4	0.0	7.1869998	34.61700058	10.33399963
         265	1	89	1	0.0	8.25899982	31.03700066	7.74499989
         266	1	89	3	0.0	8.22500038	31.04800034	5.36499977
         267	1	89	4	0.0	8.23400021	29.68000031	8.45199966
         268	1	90	1	0.0	5.47599983	30.45199966	5.15199995
         269	1	90	3	0.0	5.88999987	31.60400009	3.09599996
         270	1	90	4	0.0	4.00400019	30.14599991	5.48799992
         271	1	91	1	0.0	5.45300007	34.11800003	4.09700012
         272	1	91	3	0.0	6.8210001	34.2519989	2.15199995
         273	1	91	4	0.0	5.34499979	35.34600067	5.02299976
         274	1	92	1	0.0	9.21800041	34.26300049	3.45499992
         275	1	92	3	0.0	10.10200024	33.39500046	1.42400002
         276	1	92	4	0.0	10.36699963	34.29700089	4.46600008
         277	1	93	1	0.0	9.43000031	30.80699921	1.94500005
         278	1	93	3	0.0	9.25	30.56599998	-0.47
         279	1	93	4	0.0	9.21399975	29.47999954	2.7190001
         280	1	94	1	0.0	6.55100012	31.40299988	-0.46700001
         281	1	94	3	0.0	7.28499985	32.5379982	-2.45099998
         282	1	94	4	0.0	5.05000019	31.43499947	-0.046
         283	1	95	1	0.0	7.0	34.99599838	-1.47599995
         284	1	95	3	0.0	8.51399994	36.6570015	-2.18300009
         285	1	95	4	0.0	6.12300014	36.13399887	-0.94099998
         286	1	96	1	0.0	10.81099987	35.40399933	-1.24600005
         287	1	96	3	0.0	12.57699966	34.69200134	-2.68199992
         288	1	96	4	0.0	11.38000011	35.8219986	0.096
         289	1	97	1	0.0	13.00899982	32.35100174	-1.35899997
         290	1	97	3	0.0	13.37199974	31.0	-3.26300001
         291	1	97	4	0.0	13.28299999	31.43600082	-0.15099999
         292	1	98	1	0.0	10.5340004	30.66399956	-3.74000001
         293	1	98	3	0.0	11.14799976	28.50699997	-4.57800007
         294	1	98	4	0.0	11.02999973	31.17700005	-5.07600021
         295	1	99	1	0.0	10.7510004	27.32600021	-2.0309999
         296	1	99	3	0.0	8.46000004	26.67700005	-1.43299997
         297	1	99	4	0.0	11.15200043	27.33699989	-0.54500002
         298	1	100	1	0.0	8.16100025	24.87299919	-3.48000002
         299	1	100	3	0.0	8.98600006	23.43300056	-1.78100002
         300	1	100	4	0.0	8.45499992	24.14500046	-4.77899981
         301	1	101	1	0.0	6.35200024	22.625	-1.01400006
         302	1	101	3	0.0	7.16699982	20.53800011	-0.072
         303	1	101	4	0.0	4.8130002	22.50300026	-1.07599998
         304	1	102	1	0.0	7.99399996	19.60700035	-2.64700007
         305	1	102	3	0.0	9.83100033	18.40600014	-1.61899996
         306	1	102	4	0.0	8.12800026	19.58099937	-4.18900013
         307	1	103	1	0.0	11.41499996	20.74300003	-1.40799999
         308	1	103	3	0.0	12.10900021	20.04500008	0.79299998
         309	1	103	4	0.0	12.01500034	22.13100052	-1.71899998
         310	1	104	1	0.0	9.88300037	20.78199959	2.11500001
         311	1	104	3	0.0	10.14900017	18.82999992	3.49799991
         312	1	104	4	0.0	8.71199989	21.60400009	2.68400002
         313	1	105	1	0.0	9.13599968	17.10899925	1.57200003
         314	1	105	3	0.0	10.8739996	15.57800007	2.27399993
         315	1	105	4	0.0	8.17199993	16.58600044	0.472
         316	1	106	1	0.0	12.72700024	16.44099998	0.43000001
         317	1	106	3	0.0	14.23600006	15.82400036	2.25900006
         318	1	106	4	0.0	13.41699982	17.23500061	-0.66900003
         319	1	107	1	0.0	14.07499981	18.14100075	3.57200003
         320	1	107	3	0.0	14.29599953	16.82099915	5.57200003
         321	1	107	4	0.0	14.2159996	19.7310009	3.88899994
         322	1	108	1	0.0	11.70699978	16.15200043	5.76499987
         323	1	108	3	0.0	12.45800018	14.13899994	6.78599977
         324	1	108	4	0.0	10.20800018	15.97599983	5.6170001
         325	1	109	1	0.0	13.05200005	12.85400009	4.57700014
         326	1	109	3	0.0	15.03999996	11.95899963	5.54199982
         327	1	109	4	0.0	12.80900002	12.26299953	3.17000008
         328	1	110	1	0.0	16.65299988	14.16100025	5.00600004
         329	1	110	3	0.0	17.59300041	13.61999989	7.15299988
         330	1	110	4	0.0	17.16500092	15.35999966	4.39699984
         331	1	111	1	0.0	15.81299973	14.93999958	8.56499958
         332	1	111	3	0.0	16.65399933	13.08500004	9.80599976
         333	1	111	4	0.0	14.77499962	15.90299988	9.07199955
         334	1	112	1	0.0	14.45800018	11.40400028	9.22500038
         335	1	112	3	0.0	16.03700066	9.70199966	9.72200012
         336	1	112	4	0.0	13.12199974	10.82900047	8.64999962
         337	1	113	1	0.0	17.36000061	9.87100029	7.35500002
         338	1	113	3	0.0	19.1590004	9.30000019	8.80200005
         339	1	113	4	0.0	17.88299942	10.24400043	5.98400021
         340	1	114	1	0.0	19.84499931	11.85599995	9.43700027
         341	1	114	3	0.0	20.56800079	10.89000034	11.46100044
         342	1	114	4	0.0	20.21500015	13.35000038	9.34599972
         343	1	115	1	0.0	18.22500038	11.08500004	12.76399994
         344	1	115	3	0.0	18.2859993	9.01900005	13.99600029
         345	1	115	4	0.0	16.92399979	11.65600014	13.34300041
         346	1	116	1	0.0	18.17399979	7.39900017	11.83699989
         347	1	116	3	0.0	20.11100006	6.41400003	12.7869997
         348	1	116	4	0.0	17.59700012	6.67199993	10.62199974
         349	1	117	1	0.0	21.88999939	7.84600019	11.02799988
         350	1	117	3	0.0	23.49699974	7.15399981	12.6789999
         351	1	117	4	0.0	22.40200043	8.97099972	10.14400005
         352	1	118	1	0.0	22.70499992	9.11200047	14.50899982
         353	1	118	3	0.0	22.37100029	9.02099991	16.83600044
         354	1	118	4	0.0	22.79700089	10.63399982	14.625
         355	1	119	1	0.0	20.01600075	7.8039999	16.80699921
         356	1	119	3	0.0	18.1060009	6.46899986	17.27899933
         357	1	119	4	0.0	19.0510006	8.94299984	17.09799957
         358	1	120	1	0.0	19.29400063	4.05900002	16.65600014
         359	1	120	3	0.0	17.13999939	3.96099997	17.6989994
         360	1	120	4	0.0	20.4659996	3.07800007	16.63299942
         361	1	121	1	0.0	18.09300041	3.31599998	20.16699982
         362	1	121	3	0.0	16.61499977	4.30499983	21.80699921
         363	1	121	5	0.0	18.90399933	2.04171021	19.63058097
         364	1	122	1	0.0	16.00699997	6.46400023	20.21899986
         365	1	122	3	0.0	13.97599983	7.16099977	19.21299934
         366	1	122	4	0.0	16.61100006	7.77199984	20.72500038
         367	1	123	1	0.0	14.81099987	6.39699984	16.65600014
         368	1	123	3	0.0	14.85400009	4.63700008	15.04800034
         369	1	123	4	0.0	15.61600018	7.19099998	15.60000038
         370	1	124	1	0.0	12.77299976	3.227	16.27199936
         371	1	124	3	0.0	11.22299957	4.71500015	15.17599964
         372	1	124	5	0.0	13.4289999	1.69770521	15.26612757
         373	1	125	1	0.0	9.6260004	2.61299992	14.18500042
         374	1	125	3	0.0	7.93200016	4.30800009	13.95400047
         375	1	125	4	0.0	9.05300045	1.25699997	13.86100006
         376	1	126	1	0.0	7.30200005	4.30800009	16.6760006
         377	1	126	3	0.0	6.78599977	6.64799976	16.50099945
         378	1	126	4	0.0	6.94500017	3.76900005	18.0739994
         379	1	127	1	0.0	9.38599968	7.49900007	16.9260006
         380	1	127	3	0.0	9.07900047	9.19699955	15.25699997
         381	1	127	4	0.0	10.68900013	7.63600016	17.63100052
         382	1	128	1	0.0	9.97000027	7.59000015	13.1789999
         383	1	128	3	0.0	8.41499996	8.93299961	11.94099998
         384	1	128	4	0.0	10.44900036	6.44500017	12.32900047
         385	1	129	1	0.0	6.20800018	7.45300007	12.74400043
         386	1	129	3	0.0	4.9829998	9.50300026	12.80099964
         387	1	129	5	0.0	7.59299994	6.46159265	11.17161001
         388	1	130	1	0.0	5.77099991	10.21399975	15.32800007
         389	1	130	3	0.0	5.70200014	12.27700043	14.09899998
         390	1	130	4	0.0	6.26599979	10.24199963	16.75
         391	1	131	1	0.0	8.43500042	12.29800034	13.63700008
         392	1	131	3	0.0	7.48400021	13.75	11.93299961
         393	1	131	4	0.0	9.90999985	11.8920002	13.52600002
         394	1	132	1	0.0	7.01200008	11.6960001	10.11999989
         395	1	132	3	0.0	5.38500023	13.31000042	9.49499989
         396	1	132	4	0.0	6.796	10.35700035	9.41300011
         397	1	133	1	0.0	3.66899991	12.67399979	11.48499966
         398	1	133	3	0.0	3.06599998	15.00899982	11.27000046
         399	1	133	4	0.0	2.86500001	11.92000008	12.54699993
         400	1	134	1	0.0	5.09600019	15.95100021	12.89500046
         401	1	134	3	0.0	5.35400009	18.03100014	11.70699978
         402	1	134	4	0.0	5.89400005	16.08600044	14.20300007
         403	1	135	1	0.0	6.91699982	16.90699959	9.67599964
         404	1	135	3	0.0	5.72300005	18.02799988	7.92199993
         405	1	135	4	0.0	8.07499981	16.13599968	9.04399967
         406	1	136	1	0.0	3.64199996	16.21800041	7.89799976
         407	1	136	3	0.0	2.55100012	18.20299911	7.34600019
         408	1	136	4	0.0	2.80599999	14.95499992	8.08100033
         409	1	137	1	0.0	1.574	18.60199928	10.02499962
         410	1	137	3	0.0	1.46899998	20.8579998	9.24199963
         411	1	137	4	0.0	1.44000006	18.49699974	11.53800011
         412	1	138	1	0.0	4.26900005	21.18099976	9.51099968
         413	1	138	3	0.0	3.79200006	22.63100052	7.6880002
         414	1	138	4	0.0	5.70499992	20.87000084	9.87699986
         415	1	139	1	0.0	4.204	20.67900085	5.73400021
         416	1	139	3	0.0	2.47399998	21.77899933	4.4380002
         417	1	139	4	0.0	4.65600014	19.3920002	5.07600021
         418	1	140	1	0.0	0.391	20.76099968	5.61800003
         419	1	140	3	0.0	-0.479	22.94199944	5.04500008
         420	1	140	4	0.0	-0.58499998	19.67900085	6.09299994
         421	1	141	1	0.0	-0.013	24.03800011	7.57999992
         422	1	141	3	0.0	0.191	26.14599991	6.51399994
         423	1	141	4	0.0	0.289	24.25200081	9.05500031
         424	1	142	1	0.0	2.63800001	25.66399956	5.4460001
         425	1	142	3	0.0	1.93200004	26.77400017	3.38599992
         426	1	142	4	0.0	4.12300014	25.16500092	5.19899988
         427	1	143	1	0.0	0.73100001	24.39900017	2.39499998
         428	1	143	3	0.0	-0.78500003	25.98500061	1.45099998
         429	1	143	4	0.0	0.45300001	22.90999985	2.19400001
         430	1	144	1	0.0	-2.4289999	26.06399918	3.6329999
         431	1	144	3	0.0	-2.72099996	28.20400047	2.69300008
         432	1	144	4	0.0	-3.05500007	25.84900093	4.99800014
         433	1	145	1	0.0	-0.53399998	29.3579998	3.93700004
         434	1	145	3	0.0	-0.46399999	30.8390007	2.00600004
         435	1	145	4	0.0	0.74699998	29.56500053	4.75899982
         436	1	146	1	0.0	0.82599998	28.88299942	0.45199999
         437	1	146	3	0.0	-0.33399999	29.8560009	-1.39699996
         438	1	146	4	0.0	1.62	27.6420002	0.083
         439	1	147	1	0.0	-2.5999999	28.19199944	-1.08299994
         440	1	147	3	0.0	-3.15899992	30.30999947	-2.01699996
         441	1	147	4	0.0	-3.61800003	27.15699959	-0.58200002
         442	1	148	1	0.0	-3.87800002	31.36100006	0.56599998
         443	1	148	3	0.0	-3.7349999	33.62200165	-0.223
         444	1	148	4	0.0	-3.93600011	31.55599976	2.09299994
         445	1	149	1	0.0	-1.09800005	33.54600143	-0.861
         446	1	149	3	0.0	-0.491	34.20399857	-3.08599997
         447	1	149	4	0.0	0.35600001	33.61800003	-0.301
         448	1	150	1	0.0	-1.50600004	31.90500069	-4.2670002
         449	1	150	3	0.0	0.12899999	31.4810009	-5.99499989
         450	1	150	5	0.0	-1.54100001	29.92981418	-5.00698449
         451	1	151	1	0.0	1.62800002	29.79100037	-4.38800001
         452	1	151	3	0.0	0.37599999	27.8390007	-3.66799998
         453	1	151	4	0.0	2.88899994	30.11499977	-3.59299994
         454	1	152	1	0.0	1.92299998	26.08799934	-5.31899977
         455	1	152	3	0.0	-0.289	25.45000076	-4.67999983
         456	1	152	4	0.0	2.45799994	25.51600075	-4.01599979
         457	1	153	1	0.0	-0.91399997	24.29999924	-7.10900021
         458	1	153	3	0.0	-2.48300004	24.6970005	-8.86299992
         459	1	153	5	0.0	0.35100001	22.07581546	-6.04866448

Bond Coeffs

           1	200.0	3.77
           2	200.0	2.41
           3	200.0	2.50
           4	200.0	1.54
           5	200.0	1.54
Bonds

           1	2	1	2
           2	4	1	3
           3	1	1	4
           4	3	2	4
           5	2	4	5
           6	4	4	6
           7	1	4	7
           8	3	5	7
           9	2	7	8
          10	4	7	9
          11	1	7	10
          12	3	8	10
          13	2	10	11
          14	4	10	12
          15	1	10	13
          16	3	11	13
          17	2	13	14
          18	5	13	15
          19	1	13	16
          20	3	14	16
          21	2	16	17
          22	4	16	18
          23	1	16	19
          24	3	17	19
          25	2	19	20
          26	4	19	21
          27	1	19	22
          28	3	20	22
          29	2	22	23
          30	4	22	24
          31	1	22	25
          32	3	23	25
          33	2	25	26
          34	4	25	27
          35	1	25	28
          36	3	26	28
          37	2	28	29
          38	4	28	30
          39	1	28	31
          40	3	29	31
          41	2	31	32
          42	4	31	33
          43	1	31	34
          44	3	32	34
          45	2	34	35
          46	4	34	36
          47	1	34	37
          48	3	35	37
          49	2	37	38
          50	4	37	39
          51	1	37	40
          52	3	38	40
          53	2	40	41
          54	4	40	42
          55	1	40	43
          56	3	41	43
          57	2	43	44
          58	4	43	45
          59	1	43	46
          60	3	44	46
          61	2	46	47
          62	4	46	48
          63	1	46	49
          64	3	47	49
          65	2	49	50
          66	4	49	51
          67	1	49	52
          68	3	50	52
          69	2	52	53
          70	4	52	54
          71	1	52	55
          72	3	53	55
          73	2	55	56
          74	4	55	57
          75	1	55	58
          76	3	56	58
          77	2	58	59
          78	4	58	60
          79	1	58	61
          80	3	59	61
          81	2	61	62
          82	4	61	63
          83	1	61	64
          84	3	62	64
          85	2	64	65
          86	4	64	66
          87	1	64	67
          88	3	65	67
          89	2	67	68
          90	5	67	69
          91	1	67	70
          92	3	68	70
          93	2	70	71
          94	4	70	72
          95	1	70	73
          96	3	71	73
          97	2	73	74
          98	5	73	75
          99	1	73	76
         100	3	74	76
         101	2	76	77
         102	4	76	78
         103	1	76	79
         104	3	77	79
         105	2	79	80
         106	4	79	81
         107	1	79	82
         108	3	80	82
         109	2	82	83
         110	4	82	84
         111	1	82	85
         112	3	83	85
         113	2	85	86
         114	4	85	87
         115	1	85	88
         116	3	86	88
         117	2	88	89
         118	4	88	90