ITEM: TIMESTEP
0
ITEM: NUMBER OF ATOMS
459
ITEM: BOX BOUNDS ss ss ss
-4.288 35.647
1.217 36.697
-8.903 25.118
ITEM: ATOMS id type xs ys zs
1 1 0.0127708 0.374915 0.727815
2 3 0.0497308 0.324267 0.71062
3 4 0.00100163 0.377283 0.771641
4 1 0.0970828 0.350789 0.766086
5 3 0.0675598 0.374295 0.821081
6 4 0.130086 0.372435 0.767614
7 1 0.0746213 0.309498 0.86523
8 3 0.131013 0.329707 0.877223
9 4 0.0696882 0.268461 0.87543
10 1 0.12017 0.338782 0.957908
11 3 0.179417 0.325395 0.950001
12 4 0.104695 0.33805 0.998824
13 1 0.167723 0.247745 0.948591
14 3 0.222061 0.252903 0.921225
15 5 0.142657 0.197953 0.921656
16 1 0.20025 0.268292 0.846889
17 3 0.247402 0.307244 0.830076
18 4 0.180619 0.264431 0.808207
19 1 0.223388 0.370378 0.867464
20 3 0.281232 0.374662 0.885982
21 4 0.202254 0.401776 0.884806
22 1 0.273219 0.328551 0.951001
23 3 0.331088 0.320152 0.934658
24 4 0.259622 0.30451 0.984333
25 1 0.321022 0.264318 0.883366
26 3 0.369275 0.291065 0.852268
27 4 0.309002 0.231454 0.858117
28 1 0.335445 0.349464 0.819171
29 3 0.389207 0.379763 0.827195
30 4 0.308526 0.374267 0.799888
31 1 0.369601 0.415163 0.896652
32 3 0.424415 0.412711 0.923606
33 4 0.345887 0.436358 0.924488
34 1 0.420734 0.337965 0.946092
35 3 0.479154 0.339656 0.933864
36 4 0.408639 0.298506 0.957027
37 1 0.475122 0.326409 0.855707
38 3 0.516089 0.368264 0.830928
39 4 0.469864 0.296984 0.822345
40 1 0.476675 0.429622 0.830605
41 3 0.525754 0.464092 0.849622
42 4 0.448829 0.458371 0.827136
43 1 0.51669 0.44611 0.932101
44 3 0.576487 0.448929 0.940507
45 4 0.501139 0.432441 0.971194
46 1 0.591236 0.388782 0.895359
47 3 0.628997 0.38726 0.839893
48 4 0.595342 0.346054 0.901179
49 1 0.596119 0.443799 0.798801
50 3 0.629823 0.499605 0.800447
51 4 0.570051 0.453636 0.764469
52 1 0.600551 0.525536 0.870903
53 3 0.653387 0.555778 0.889069
54 4 0.575009 0.53044 0.903765
55 1 0.684412 0.488219 0.908351
56 3 0.741029 0.488811 0.885923
57 4 0.687117 0.449295 0.926928
58 1 0.72603 0.503749 0.809588
59 3 0.707775 0.501156 0.742218
60 4 0.746864 0.468771 0.799183
61 1 0.669037 0.566855 0.750948
62 3 0.674646 0.564318 0.679845
63 4 0.655691 0.605186 0.767791
64 1 0.738225 0.592785 0.680727
65 3 0.752147 0.566263 0.618442
66 4 0.767147 0.618489 0.693983
67 1 0.770828 0.496984 0.645719
68 3 0.74153 0.463106 0.593604
69 5 0.759259 0.445978 0.609057
70 1 0.681658 0.464346 0.634138
71 3 0.660523 0.474352 0.568649
72 4 0.656342 0.466178 0.667059
73 1 0.65837 0.550366 0.572852
74 3 0.668086 0.545772 0.503513
75 5 0.671166 0.539096 0.545796
76 1 0.73567 0.534808 0.512889
77 3 0.732465 0.496674 0.453543
78 4 0.770252 0.53695 0.531642
79 1 0.716339 0.431116 0.492108
80 3 0.684713 0.422886 0.431586
81 4 0.711782 0.400366 0.523118
82 1 0.626844 0.455101 0.463126
83 3 0.617003 0.464036 0.392993
84 4 0.601152 0.472069 0.49152
85 1 0.648379 0.532779 0.391846
86 3 0.665181 0.522914 0.324682
87 4 0.660649 0.572069 0.403574
88 1 0.714211 0.471223 0.342024
89 3 0.696206 0.431454 0.287793
90 4 0.748566 0.458455 0.361865
91 1 0.654764 0.386781 0.336116
92 3 0.631777 0.393687 0.270362
93 4 0.636134 0.372999 0.373416
94 1 0.593715 0.457187 0.285618
95 3 0.59662 0.458343 0.215396
96 4 0.581245 0.494109 0.302931
97 1 0.654964 0.500085 0.212986
98 3 0.668987 0.470772 0.151318
99 4 0.684512 0.52624 0.223362
100 1 0.688043 0.403749 0.189883
101 3 0.661775 0.370519 0.133859
102 4 0.705897 0.380609 0.22201
103 1 0.605284 0.350789 0.17351
104 3 0.57521 0.359526 0.114782
105 4 0.580518 0.339374 0.205726
106 1 0.564142 0.435654 0.124394
107 3 0.573106 0.503157 0.126157
108 4 0.530838 0.444222 0.145616
109 1 0.628196 0.500986 0.0737192
110 3 0.628672 0.568968 0.0631963
111 4 0.651233 0.483399 0.0424738
112 1 0.564242 0.568827 0.0327445
113 3 0.540353 0.623703 0.0629023
114 4 0.532265 0.555693 0.0105229
115 1 0.55062 0.600366 0.138708
116 3 0.572831 0.660457 0.163135
117 4 0.546964 0.57469 0.176127
118 1 0.637786 0.642644 0.142824
119 3 0.646425 0.70823 0.133535
120 4 0.670139 0.621956 0.132624
121 1 0.61212 0.707976 0.0586403
122 3 0.58758 0.77018 0.0613445
123 4 0.594216 0.692756 0.0223097
124 1 0.553625 0.755468 0.13183
125 3 0.565644 0.810541 0.171188
126 4 0.526756 0.734639 0.154846
127 1 0.62767 0.78836 0.193116
128 3 0.675923 0.786387 0.151877
129 4 0.643396 0.764402 0.226154
130 1 0.682985 0.86305 0.150348
131 3 0.742882 0.851832 0.147291
132 4 0.674346 0.90482 0.149349
133 1 0.751571 0.849267 0.227271
134 3 0.7997 0.807131 0.22154
135 4 0.747415 0.854594 0.271156
136 1 0.759084 0.743968 0.214809
137 3 0.777864 0.695857 0.17016
138 4 0.732666 0.722435 0.237647
139 1 0.766496 0.732018 0.105964
140 3 0.810367 0.715473 0.0623145
141 4 0.742081 0.748844 0.0757473
142 1 0.861074 0.737993 0.110108
143 3 0.89836 0.684696 0.114224
144 4 0.883661 0.768715 0.128362
145 1 0.856867 0.646561 0.169689
146 3 0.822687 0.593377 0.150701
147 4 0.836409 0.646477 0.208077
148 1 0.868712 0.569673 0.0923253
149 3 0.847077 0.511218 0.118574
150 4 0.89513 0.571336 0.0602275
151 1 0.905697 0.48991 0.152435
152 3 0.885163 0.516911 0.212898
153 4 0.942607 0.483145 0.152553
154 1 0.880731 0.451043 0.251492
155 3 0.894754 0.482948 0.312101
156 4 0.872293 0.410428 0.261221
157 1 0.963992 0.475169 0.301578
158 3 0.955252 0.533202 0.337527
159 4 0.998998 0.464825 0.287411
160 1 0.95097 0.577649 0.272302
161 3 0.922599 0.609639 0.325652
162 4 0.946613 0.592418 0.23071
163 1 0.86433 0.572322 0.317069
164 3 0.859847 0.588754 0.385938
165 4 0.835533 0.545293 0.306899
166 1 0.896382 0.531313 0.412628
167 3 0.915588 0.573591 0.464037
168 4 0.910404 0.491573 0.4198
169 1 0.963666 0.608145 0.417301
170 3 0.960286 0.670068 0.44355
171 4 0.99379 0.608991 0.390141
172 1 0.904495 0.690896 0.400135
173 3 0.866859 0.680834 0.45372
174 4 0.87715 0.693687 0.369066
175 1 0.888394 0.743884 0.49493
176 3 0.831977 0.758117 0.516975
177 4 0.915062 0.771618 0.510773
178 1 0.819807 0.801353 0.447341
179 3 0.765519 0.774211 0.463508
180 4 0.828471 0.821336 0.408865
181 1 0.773031 0.709216 0.42121
182 3 0.73249 0.687091 0.470827
183 4 0.786052 0.678016 0.39358
184 1 0.780193 0.677847 0.527527
185 3 0.737348 0.69177 0.573704
186 4 0.813447 0.668912 0.549661
187 1 0.744184 0.769955 0.566327
188 3 0.683761 0.768377 0.577349
189 4 0.757982 0.809724 0.557773
190 1 0.669187 0.756623 0.499192
191 3 0.622937 0.727396 0.53273
192 4 0.669363 0.752649 0.453779
193 1 0.654539 0.6573 0.537815
194 3 0.616677 0.651776 0.591605
195 5 0.668511 0.576796 0.510984
196 1 0.65201 0.699746 0.639723
197 3 0.59717 0.712852 0.659416
198 4 0.679454 0.721223 0.663531
199 1 0.587129 0.771308 0.605861
200 3 0.530587 0.753439 0.61706
201 4 0.590009 0.80062 0.571647
202 1 0.528509 0.697153 0.560771
203 3 0.487893 0.66894 0.601364
204 4 0.536722 0.671871 0.526028
205 1 0.53547 0.626071 0.64325
206 3 0.499737 0.628382 0.698833
207 4 0.566245 0.600676 0.652215
208 1 0.518117 0.696928 0.723906
209 3 0.465657 0.720406 0.744481
210 4 0.541755 0.724831 0.74501
211 1 0.444072 0.738557 0.668705
212 3 0.39672 0.702396 0.690133
213 4 0.443371 0.756482 0.627759
214 1 0.4151 0.637852 0.652803
215 3 0.376161 0.620406 0.701802
216 4 0.432954 0.605891 0.630875
217 1 0.425842 0.611894 0.758208
218 3 0.382722 0.61925 0.804209
219 5 0.430424 0.542659 0.749736
220 1 0.379492 0.698788 0.794068
221 3 0.318968 0.697153 0.803856
222 4 0.388907 0.73805 0.781165
223 1 0.306573 0.664431 0.731284
224 3 0.267385 0.624464 0.762794
225 4 0.305747 0.659216 0.6859
226 1 0.309428 0.562909 0.768555
227 3 0.271341 0.553889 0.820523
228 4 0.337724 0.533315 0.76682
229 1 0.306899 0.592982 0.875136
230 3 0.259847 0.61615 0.911261
231 4 0.331939 0.616967 0.897152
232 1 0.228371 0.647182 0.851327
233 3 0.172355 0.627283 0.858734
234 4 0.225792 0.678185 0.820434
235 1 0.187154 0.553974 0.826372
236 3 0.131163 0.57066 0.848505
237 4 0.191611 0.524464 0.858881
238 1 0.103368 0.566122 0.77702
239 3 0.103568 0.622548 0.738103
240 5 0.13855 0.509277 0.74088
241 1 0.0917741 0.670039 0.799271
242 3 0.143734 0.703072 0.809882
243 4 0.0780268 0.686866 0.837924
244 1 0.162189 0.704312 0.734252
245 3 0.184976 0.744532 0.68446
246 4 0.1847 0.671702 0.719732
247 1 0.125429 0.786781 0.676641
248 3 0.16304 0.831821 0.647482
249 4 0.0884688 0.799126 0.679904
250 1 0.173632 0.872097 0.715823
251 3 0.221585 0.894617 0.679169
252 4 0.177989 0.881229 0.759707
253 1 0.256542 0.828551 0.683401
254 3 0.285314 0.814712 0.624438
255 4 0.274421 0.799408 0.708592
256 1 0.229899 0.780637 0.589753
257 3 0.233655 0.808089 0.524764
258 4 0.20596 0.746449 0.592605
259 1 0.189783 0.866488 0.542283
260 3 0.220083 0.888754 0.486435
261 4 0.164517 0.893687 0.561683
262 1 0.268486 0.927367 0.529026
263 3 0.299537 0.916432 0.469328
264 4 0.287342 0.941375 0.565445
265 1 0.314186 0.840473 0.489345
266 3 0.313334 0.840784 0.419388
267 4 0.31356 0.802227 0.510126
268 1 0.244497 0.823985 0.413127
269 3 0.254864 0.856454 0.352694
270 4 0.207637 0.815361 0.423003
271 1 0.243921 0.927311 0.382117
272 3 0.278177 0.931088 0.324946
273 4 0.241217 0.961922 0.409335
274 1 0.3382 0.931398 0.363246
275 3 0.360336 0.906933 0.303548
276 4 0.366971 0.932356 0.392963
277 1 0.343508 0.833991 0.318862
278 3 0.339001 0.827198 0.247876
279 4 0.338099 0.79659 0.341613
280 1 0.271416 0.850789 0.247964
281 3 0.289796 0.882779 0.189648
282 4 0.23383 0.851691 0.260339
283 1 0.282659 0.952057 0.218306
284 3 0.320571 0.998873 0.197525
285 4 0.260699 0.984132 0.234032
286 1 0.378089 0.963557 0.225067
287 3 0.422311 0.943489 0.182858
288 4 0.392338 0.975338 0.264513
289 1 0.433129 0.877508 0.221745
290 3 0.442219 0.839431 0.16578
291 4 0.43999 0.851719 0.257253
292 1 0.371153 0.82996 0.151759
293 3 0.386528 0.769166 0.127127
294 4 0.383573 0.844419 0.112489
295 1 0.376587 0.735879 0.201993
296 3 0.319219 0.717587 0.21957
297 4 0.386628 0.736189 0.245672
298 1 0.311732 0.666742 0.159402
299 3 0.33239 0.626156 0.209341
300 4 0.319094 0.646223 0.121219
301 1 0.266433 0.603382 0.231886
302 3 0.286841 0.54456 0.259575
303 4 0.227895 0.599944 0.230064
304 1 0.30755 0.51832 0.183886
305 3 0.35355 0.48447 0.214103
306 4 0.310905 0.517587 0.138561
307 1 0.393214 0.550338 0.220305
308 3 0.410592 0.530665 0.285
309 4 0.408238 0.589459 0.211164
310 1 0.354852 0.551437 0.323859
311 3 0.361512 0.49642 0.36451
312 4 0.325529 0.574605 0.340584
313 1 0.336146 0.447914 0.307898
314 3 0.379667 0.404763 0.328532
315 4 0.312007 0.433174 0.275565
316 1 0.426067 0.429087 0.274331
317 3 0.463854 0.411697 0.328091
318 4 0.443345 0.451466 0.242027
319 1 0.459822 0.477001 0.366685
320 3 0.465356 0.439797 0.425473
321 4 0.463353 0.521815 0.376003
322 1 0.400526 0.420941 0.431145
323 3 0.419331 0.364205 0.461156
324 4 0.36299 0.415981 0.426795
325 1 0.434206 0.327988 0.396226
326 3 0.483986 0.302762 0.424591
327 4 0.428121 0.31133 0.354869
328 1 0.524377 0.364825 0.408836
329 3 0.547915 0.349577 0.471944
330 4 0.537198 0.398619 0.390935
331 1 0.503343 0.386781 0.513448
332 3 0.524402 0.334498 0.549925
333 4 0.477351 0.413923 0.52835
334 1 0.469413 0.28712 0.532847
335 3 0.508952 0.239149 0.547456
336 4 0.435958 0.270913 0.515946
337 1 0.542081 0.243912 0.477881
338 3 0.587129 0.227818 0.520414
339 4 0.555177 0.254425 0.437583
340 1 0.604307 0.299859 0.539079
341 3 0.622411 0.272632 0.598571
342 4 0.613572 0.341967 0.536404
343 1 0.563741 0.278129 0.636871
344 3 0.565269 0.219899 0.673084
345 4 0.531163 0.294222 0.65389
346 1 0.562464 0.174239 0.609623
347 3 0.610968 0.146477 0.637547
348 4 0.548016 0.153749 0.57391
349 1 0.655515 0.186838 0.585844
350 3 0.695756 0.167334 0.634373
351 4 0.668336 0.218546 0.55986
352 1 0.675923 0.22252 0.688163
353 3 0.66756 0.219955 0.756562
354 4 0.678227 0.265417 0.691573
355 1 0.608589 0.185654 0.75571
356 3 0.560761 0.148027 0.769583
357 4 0.584425 0.217756 0.764263
358 1 0.59051 0.0801015 0.751271
359 3 0.536572 0.0773393 0.781929
360 4 0.619857 0.0524521 0.750595
361 1 0.560436 0.0591601 0.854472
362 3 0.523426 0.0870349 0.902678
363 5 0.580744 0.0232444 0.838705
364 1 0.508201 0.147886 0.856001
365 3 0.457343 0.167531 0.826431
366 4 0.523325 0.184752 0.870874
367 1 0.478252 0.145998 0.751271
368 3 0.479329 0.0963923 0.704006
369 4 0.49841 0.168377 0.720232
370 1 0.427219 0.0566516 0.739984
371 3 0.388406 0.0985908 0.707769
372 5 0.443646 0.0135486 0.710418
373 1 0.348416 0.0393461 0.67864
374 3 0.305997 0.0871195 0.67185
375 4 0.334068 0.0011274 0.669116
376 1 0.290222 0.0871195 0.751859
377 3 0.277301 0.153072 0.746715
378 4 0.281282 0.0719278 0.792951
379 1 0.342406 0.177057 0.759208
380 3 0.334719 0.224915 0.71015
381 4 0.375034 0.180919 0.77993
382 1 0.35703 0.179622 0.64907
383 3 0.318092 0.217475 0.61268
384 4 0.369025 0.147351 0.624085
385 1 0.262827 0.175761 0.636284
386 3 0.232152 0.23354 0.637959
387 5 0.297508 0.147818 0.590065
388 1 0.251884 0.253579 0.712237
389 3 0.250157 0.311725 0.676112
390 4 0.264279 0.254369 0.754034
391 1 0.318593 0.312317 0.662532
392 3 0.294779 0.353241 0.612445
393 4 0.355528 0.300874 0.659269
394 1 0.28296 0.295349 0.559155
395 3 0.242219 0.34084 0.540784
396 4 0.277551 0.25761 0.538373
397 1 0.199249 0.322914 0.599277
398 3 0.184149 0.388726 0.592957
399 4 0.179116 0.301663 0.630493
400 1 0.234982 0.415276 0.640722
401 3 0.241442 0.473901 0.605802
402 4 0.254964 0.419081 0.679169
403 1 0.280581 0.442221 0.546104
404 3 0.250682 0.473816 0.494547
405 4 0.309578 0.42049 0.527527
406 1 0.198573 0.422802 0.493842
407 3 0.171253 0.478749 0.477617
408 4 0.177639 0.387204 0.499221
409 1 0.146789 0.489994 0.556362
410 3 0.144159 0.553579 0.533347
411 4 0.143433 0.487035 0.600835
412 1 0.214273 0.562683 0.541254
413 3 0.202329 0.603551 0.487669
414 4 0.250232 0.553918 0.552012
415 1 0.212646 0.548534 0.430234
416 3 0.169325 0.579538 0.39214
417 4 0.223964 0.51226 0.410893
418 1 0.117165 0.550846 0.426825
419 3 0.09538 0.612317 0.409982
420 4 0.0927257 0.520349 0.440787
421 1 0.107049 0.643207 0.484495
422 3 0.112157 0.702621 0.453161
423 4 0.114611 0.649239 0.52785
424 1 0.173432 0.689036 0.421769
425 3 0.155753 0.720321 0.361218
426 4 0.210617 0.674972 0.414509
427 1 0.125679 0.653382 0.332089
428 3 0.0877175 0.698083 0.304341
429 4 0.118718 0.611415 0.326181
430 1 0.0465507 0.70031 0.368478
431 3 0.0392388 0.760626 0.340848
432 4 0.0308752 0.69425 0.408601
433 1 0.0940028 0.793151 0.377414
434 3 0.0957556 0.834893 0.320655
435 4 0.12608 0.798985 0.401576
436 1 0.128058 0.779763 0.274977
437 3 0.0990109 0.807187 0.220628
438 4 0.14794 0.744786 0.264131
439 1 0.0422687 0.760287 0.229858
440 3 0.0282709 0.819983 0.202404
441 4 0.0167773 0.731116 0.244584
442 1 0.0102667 0.849605 0.278328
443 3 0.0138475 0.913331 0.255137
444 4 0.00881432 0.855101 0.323212
445 1 0.0798798 0.911189 0.236383
446 3 0.0950795 0.929735 0.170983
447 4 0.116289 0.913219 0.252844
448 1 0.0696632 0.864938 0.136269
449 3 0.110605 0.852988 0.0854766
450 5 0.0687868 0.809268 0.114518
451 1 0.148141 0.805355 0.132712
452 3 0.11679 0.750338 0.153876
453 4 0.179717 0.814487 0.15608
454 1 0.155528 0.700986 0.105347
455 3 0.100138 0.683005 0.124129
456 4 0.168925 0.684865 0.143647
457 1 0.0844873 0.650592 0.0527321
458 3 0.0451985 0.661781 0.00117574
459 5 0.116164 0.587903 0.0838992
