LAMMPS protain data file

         465  atoms
         618  bonds
           0  angles
           0  dihedrals
           0  impropers

           5  atom types
           5  bond types
           0  angle types
           0  dihedral types
           0  improper types

-200.0	200.0	xlo xhi
-200.0	200.0	ylo yhi
-200.0	200.0	zlo zhi

Masses

           1	27.0
           2	14.0
           3	28.0
           4	60.0
           5	60.0

Atoms

           1	1	1	1	0.0	-17.78199959	-4.84499979	18.54500008
           2	1	1	3	0.0	-18.37400055	-3.41599989	20.38500023
           3	1	1	4	0.0	-19.13199997	-4.90899992	17.86199951
           4	1	2	1	0.0	-16.54599953	-1.43799996	19.72999954
           5	1	2	3	0.0	-17.96899986	-0.102	18.32600021
           6	1	2	4	0.0	-15.12699986	-0.98400003	19.41600037
           7	1	3	1	0.0	-18.99399948	1.33500004	20.58300018
           8	1	3	3	0.0	-19.30400085	3.6099999	20.07099915
           9	1	3	4	0.0	-19.75699997	1.37800002	21.90500069
          10	1	4	1	0.0	-16.52799988	4.17600012	19.88500023
          11	1	4	3	0.0	-14.93099976	2.77600002	18.79000092
          12	1	4	4	0.0	-15.94900036	4.79500008	21.13400078
          13	1	5	1	0.0	-14.49300003	4.59200001	16.67300034
          14	1	5	3	0.0	-13.01399994	5.96600008	17.90800095
          15	1	5	4	0.0	-14.90100002	5.59600019	15.57800007
          16	1	6	1	0.0	-10.72700024	4.38899994	17.37800026
          17	1	6	3	0.0	-9.75399971	3.90199995	15.19400024
          18	1	6	4	0.0	-10.1420002	3.28900003	18.23800087
          19	1	7	1	0.0	-8.13899994	6.20800018	15.25699997
          20	1	7	3	0.0	-6.79099989	7.01499987	17.04500008
          21	1	7	4	0.0	-8.65200043	7.5	14.56499958
          22	1	8	1	0.0	-4.33900023	6.21400023	15.80300045
          23	1	8	3	0.0	-3.86500001	6.3210001	13.46199989
          24	1	8	4	0.0	-3.74900007	4.86999989	16.26000023
          25	1	9	1	0.0	-2.07399988	8.37699986	13.67300034
          26	1	9	3	0.0	-0.252	9.04800034	15.18500042
          27	1	9	4	0.0	-2.73200011	9.76500034	13.26799965
          28	1	10	1	0.0	1.58700001	9.10700035	13.01599979
          29	1	10	3	0.0	1.41700006	9.27900028	10.60099983
          30	1	10	4	0.0	2.45000005	8.03100014	13.64099979
          31	1	11	1	0.0	3.56299996	11.05300045	10.41300011
          32	1	11	3	0.0	5.59600019	11.27099991	11.66800022
          33	1	11	5	0.0	3.00699997	10.87762264	8.52932602
          34	1	12	1	0.0	7.23600006	11.0369997	9.40699959
          35	1	12	3	0.0	7.13600016	11.72399998	7.13100004
          36	1	12	4	0.0	7.74499989	9.55799961	9.34200001
          37	1	13	1	0.0	9.59300041	13.0010004	7.14599991
          38	1	13	3	0.0	11.6260004	13.05599976	8.40100002
          39	1	13	4	0.0	9.09300041	14.42599964	7.06500006
          40	1	14	1	0.0	13.27299976	12.57800007	6.28299999
          41	1	14	3	0.0	15.18400002	13.9630003	6.39300013
          42	1	14	4	0.0	13.67599964	11.43599987	5.36100006
          43	1	15	1	0.0	13.99499989	16.30500031	5.65799999
          44	1	15	3	0.0	11.90499973	17.22299957	6.24900007
          45	1	15	5	0.0	13.28999996	15.77568031	5.03547275
          46	1	16	1	0.0	12.66699982	19.84499931	5.72100019
          47	1	16	3	0.0	13.44099998	21.84700012	4.796
          48	1	16	4	0.0	12.90999985	20.56800079	7.03900003
          49	1	17	1	0.0	11.35900021	19.40099907	3.18099999
          50	1	17	3	0.0	13.2510004	18.31500053	2.13800001
          51	1	17	4	0.0	10.37100029	20.02300072	2.16199994
          52	1	18	1	0.0	11.93400002	15.79300022	2.18600011
          53	1	18	3	0.0	9.57800007	15.17500019	2.22300005
          54	1	18	5	0.0	11.49199963	14.18434035	1.70028509
          55	1	19	1	0.0	10.08600044	12.55300045	1.37
          56	1	19	3	0.0	10.28499985	12.33300018	3.70499992
          57	1	19	4	0.0	10.87899971	11.36999989	0.87199998
          58	1	20	1	0.0	7.56899977	11.72700024	4.12200022
          59	1	20	3	0.0	5.99900007	10.52200031	2.75099993
          60	1	20	5	0.0	8.22299957	11.26689974	5.25041059
          61	1	21	1	0.0	4.59200001	9.49100018	4.88399982
          62	1	21	3	0.0	4.204	10.19799995	7.16400003
          63	1	21	5	0.0	5.7670002	8.02010142	3.70839509
          64	1	22	1	0.0	1.81900001	8.79699993	7.36800003
          65	1	22	3	0.0	1.45500004	6.60300016	6.54199982
          66	1	22	4	0.0	0.69300002	9.84200001	7.07499981
          67	1	23	1	0.0	0.25400001	5.78999996	8.99499989
          68	1	23	3	0.0	-0.92199999	6.92000008	10.74100018
          69	1	23	5	0.0	0.89399999	4.02165516	8.19175563
          70	1	24	1	0.0	-3.32399988	5.74900007	10.31900024
          71	1	24	3	0.0	-4.05800009	3.60100007	9.49199963
          72	1	24	4	0.0	-4.23799992	6.86399984	9.83199978
          73	1	25	1	0.0	-5.26499987	2.86100006	11.91100025
          74	1	25	3	0.0	-6.68200016	4.16800022	13.30000019
          75	1	25	4	0.0	-4.58300018	1.95799994	12.93700027
          76	1	26	1	0.0	-9.09599972	3.125	12.03299999
          77	1	26	3	0.0	-9.94200039	0.95499998	11.50899982
          78	1	26	4	0.0	-9.61999989	3.70700002	10.68400002
          79	1	27	1	0.0	-11.24199963	0.62400001	13.94999981
          80	1	27	3	0.0	-13.10200024	1.88199997	14.68200016
          81	1	27	4	0.0	-11.00899982	0.199	15.40100002
          82	1	28	1	0.0	-14.61400032	1.24800003	12.27200031
          83	1	28	3	0.0	-15.10900021	-0.81999999	11.04500008
          84	1	28	4	0.0	-14.55599976	2.25500011	11.17199993
          85	1	29	1	0.0	-17.62999916	-1.023	12.35599995
          86	1	29	3	0.0	-16.5510006	-1.94799995	14.29199982
          87	1	29	4	0.0	-18.06800079	-1.16199994	10.93999958
          88	1	30	1	0.0	-15.97200012	-4.41300011	13.01799965
          89	1	30	3	0.0	-13.93099976	-5.61399984	12.63700008
          90	1	30	5	0.0	-16.66799927	-5.08062468	13.18078567
          91	1	31	1	0.0	-13.00599957	-3.80100012	10.66699982
          92	1	31	3	0.0	-12.28499985	-2.00399995	12.03199959
          93	1	31	4	0.0	-13.09799957	-3.31299996	9.20899963
          94	1	32	1	0.0	-9.53199959	-2.43799996	11.2670002
          95	1	32	3	0.0	-8.42199993	-3.01200008	9.26299953
          96	1	32	4	0.0	-8.46000004	-3.20000005	12.00599957
          97	1	33	1	0.0	-8.49699974	-0.32800001	8.25500011
          98	1	33	3	0.0	-6.99700022	1.01900005	9.58300018
          99	1	33	4	0.0	-9.42599964	0.67799997	7.59299994
         100	1	34	1	0.0	-4.9000001	0.79000002	7.66699982
         101	1	34	3	0.0	-4.81599998	1.15600002	5.27199984
         102	1	34	4	0.0	-3.78900003	-0.34299999	7.81099987
         103	1	35	1	0.0	-3.98600006	3.77600002	5.55000019
         104	1	35	3	0.0	-2.08699989	4.47100019	6.82499981
         105	1	35	4	0.0	-4.82000017	5.02699995	5.625
         106	1	36	1	0.0	-0.47	4.74700022	4.54899979
         107	1	36	3	0.0	-0.48100001	4.44700003	2.17600012
         108	1	36	4	0.0	0.34599999	3.56100011	5.06099987
         109	1	37	1	0.0	1.06099999	6.70200014	1.61899996
         110	1	37	3	0.0	2.45000005	8.10000038	2.98300004
         111	1	37	4	0.0	-0.093	7.50500011	1.02100003
         112	1	38	1	0.0	4.38999987	8.4630003	0.977
         113	1	38	3	0.0	3.69899988	9.30799961	-1.13800001
         114	1	38	5	0.0	3.15799999	7.97057189	1.66572866
         115	1	39	1	0.0	4.88399982	11.89599991	-0.57499999
         116	1	39	3	0.0	7.12099981	12.27099991	0.152
         117	1	39	4	0.0	4.17399979	13.07199955	0.13699999
         118	1	40	1	0.0	7.99300003	12.97299957	-2.49399996
         119	1	40	3	0.0	9.86999989	14.01299953	-1.49100006
         120	1	40	4	0.0	8.05200005	13.01399994	-4.07999992
         121	1	41	1	0.0	8.51900005	16.33099937	-0.74299997
         122	1	41	3	0.0	6.47599983	17.51799965	-0.43200001
         123	1	41	4	0.0	8.96199989	17.27899933	-1.82200003
         124	1	42	1	0.0	6.55499983	17.44400024	2.30900002
         125	1	42	3	0.0	8.52600002	17.79800034	3.55599999
         126	1	42	4	0.0	5.37400007	16.38999939	2.41599989
         127	1	43	1	0.0	7.204	18.11400032	6.01599979
         128	1	43	3	0.0	5.50299978	16.66200066	6.71700001
         129	1	43	4	0.0	7.05900002	19.59300041	6.58699989
         130	1	44	1	0.0	6.74499989	16.22100067	9.26900005
         131	1	44	3	0.0	4.49100018	15.88700008	10.11200047
         132	1	44	4	0.0	7.75299978	16.23800087	10.42199993
         133	1	45	1	0.0	3.9059999	18.56399918	10.26500034
         134	1	45	3	0.0	1.64999998	18.02700043	9.78999996
         135	1	45	4	0.0	4.12699986	20.07600021	10.41600037
         136	1	46	1	0.0	1.97599995	18.14999962	7.01399994
         137	1	46	3	0.0	0.396	16.3920002	6.99700022
         138	1	46	4	0.0	2.40700006	18.55599976	5.60200024
         139	1	47	1	0.0	2.26399994	14.3409996	7.33699989
         140	1	47	3	0.0	0.57599998	13.04300022	8.44499969
         141	1	47	4	0.0	3.54999995	13.50399971	7.26800013
         142	1	48	1	0.0	0.98400003	14.30200005	10.95400047
         143	1	48	3	0.0	-1.39900005	14.13099957	11.31799984
         144	1	48	4	0.0	1.63999999	15.05799961	12.10400009
         145	1	49	1	0.0	-2.00600004	16.36700058	9.85200024
         146	1	49	3	0.0	-3.89700007	15.14999962	8.98600006
         147	1	49	4	0.0	-1.94500005	17.79999924	9.32699966
         148	1	50	1	0.0	-2.56500006	14.15499973	6.77799988
         149	1	50	3	0.0	-4.16499996	12.38500023	6.91300011
         150	1	50	4	0.0	-1.62600005	14.00199986	5.62200022
         151	1	51	1	0.0	-2.83200002	11.00399971	8.91699982
         152	1	51	3	0.0	-5.02600002	10.18900013	9.2489996
         153	1	51	4	0.0	-1.83000004	10.6260004	10.02900028
         154	1	52	1	0.0	-5.72800016	12.44200039	10.98900032
         155	1	52	3	0.0	-7.89599991	12.21500015	10.16100025
         156	1	52	4	0.0	-5.58199978	13.61699963	11.9090004
         157	1	53	1	0.0	-7.34700012	13.80200005	7.78700018
         158	1	53	3	0.0	-9.15499973	12.43999958	6.89699984
         159	1	53	4	0.0	-6.79300022	14.86499977	6.79799986
         160	1	54	1	0.0	-7.47900009	10.52299976	5.8130002
         161	1	54	3	0.0	-9.29699993	9.0340004	6.18200016
         162	1	54	4	0.0	-6.30200005	9.93200016	5.05299997
         163	1	55	1	0.0	-8.76500034	8.48799992	8.79800034
         164	1	55	3	0.0	-11.13599968	8.27999973	8.91800022
         165	1	55	4	0.0	-8.07299995	8.22099972	10.10400009
         166	1	56	1	0.0	-11.58899975	10.97900009	9.51099968
         167	1	56	3	0.0	-13.66499996	10.74100018	8.27200031
         168	1	56	4	0.0	-11.45199966	12.38799953	10.09700012
         169	1	57	1	0.0	-12.55300045	11.35900021	5.8499999
         170	1	57	3	0.0	-13.94499969	9.92500019	4.53399992
         171	1	57	4	0.0	-11.75500011	12.02200031	4.78100014
         172	1	58	1	0.0	-13.13899994	7.60699987	5.84000015
         173	1	58	3	0.0	-15.25	6.46199989	5.95599985
         174	1	58	4	0.0	-12.09700012	6.54500008	6.26100016
         175	1	59	1	0.0	-16.11499977	7.95699978	8.19900036
         176	1	59	3	0.0	-17.12299919	9.66300011	6.85099983
         177	1	59	4	0.0	-15.94499969	8.52799988	9.57299995
         178	1	60	1	0.0	-19.40800095	8.13199997	6.29300022
         179	1	60	3	0.0	-21.63800049	8.86800003	6.34100008
         180	1	60	4	0.0	-19.78899956	7.046	5.296
         181	1	61	1	0.0	-21.77599907	8.93400002	9.1789999
         182	1	61	3	0.0	-19.97999954	9.57400036	10.52999973
         183	1	61	4	0.0	-22.53300095	7.76100016	9.79699993
         184	1	62	1	0.0	-21.47800064	11.07499981	12.32400036
         185	1	62	3	0.0	-21.98399925	9.125	13.54199982
         186	1	62	4	0.0	-22.43799973	12.07699966	13.0
         187	1	63	1	0.0	-19.53000069	9.01299953	14.86100006
         188	1	63	3	0.0	-18.70000076	10.91600037	16.07699966
         189	1	63	4	0.0	-18.50399971	8.02700043	14.30099964
         190	1	64	1	0.0	-18.14299965	9.17500019	18.38400078
         191	1	64	3	0.0	-16.50399971	7.39099979	18.08499908
         192	1	64	4	0.0	-18.88599968	8.70899963	19.57900047
         193	1	65	1	0.0	-14.36999989	9.14000034	17.89299965
         194	1	65	3	0.0	-13.56900024	10.27200031	19.87400055
         195	1	65	4	0.0	-13.98600006	9.89500046	16.58399963
         196	1	66	1	0.0	-11.36100006	8.70400047	20.12199974
         197	1	66	3	0.0	-9.97900009	7.69500017	18.50200081
         198	1	66	4	0.0	-11.25500011	7.69299984	21.2670002
         199	1	67	1	0.0	-8.22599983	9.89999962	18.3029995
         200	1	67	3	0.0	-6.88700008	10.85200024	20.11499977
         201	1	67	4	0.0	-8.44099998	10.97700024	17.24600029
         202	1	68	1	0.0	-4.81799984	8.97799969	19.75300026
         203	1	68	3	0.0	-3.43300009	8.56499958	17.82500076
         204	1	68	4	0.0	-4.68200016	7.56899977	20.36100006
         205	1	69	1	0.0	-1.60800004	10.56900024	18.5529995
         206	1	69	3	0.0	-1.00199997	11.89299965	20.44300079
         207	1	69	4	0.0	-1.95899999	11.61100006	17.42399979
         208	1	70	1	0.0	1.75800002	11.74600029	19.92900085
         209	1	70	3	0.0	3.18899989	13.59599972	19.66900063
         210	1	70	4	0.0	2.898	10.73600006	20.1609993
         211	1	71	1	0.0	1.87800002	14.625	17.38599968
         212	1	71	3	0.0	0.64499998	16.24500084	18.72100067
         213	1	71	4	0.0	1.08200002	14.7670002	16.10400009
         214	1	72	1	0.0	2.75099993	17.86499977	19.18499947
         215	1	72	3	0.0	1.34599996	19.77899933	18.92700005
         216	1	72	4	0.0	4.16400003	18.3560009	19.54599953
         217	1	73	1	0.0	1.76199996	19.92700005	16.18499947
         218	1	73	3	0.0	-0.44499999	20.87299919	16.22400093
         219	1	73	4	0.0	2.44199991	19.79599953	14.83399963
         220	1	74	1	0.0	-1.75800002	18.4810009	15.95400047
         221	1	74	3	0.0	-3.24699998	19.7159996	17.42499924
         222	1	74	4	0.0	-2.25200009	17.0739994	15.63300037
         223	1	75	1	0.0	-2.15199995	18.93000031	19.74099922
         224	1	75	3	0.0	-3.01999998	21.0	20.45400047
         225	1	75	4	0.0	-1.38100004	18.24399948	20.83300018
         226	1	76	1	0.0	-0.97500002	22.59199905	19.74399948
         227	1	76	3	0.0	-2.78800011	24.20299911	19.41500092
         228	1	76	4	0.0	0.36899999	23.18499947	19.33600044
         229	1	77	1	0.0	-3.23300004	23.17900085	16.77199936
         230	1	77	3	0.0	-5.35699987	24.13899994	17.45700073
         231	1	77	5	0.0	-2.227	22.15705369	14.38844828
         232	1	78	1	0.0	-6.32299995	21.59799957	18.35300064
         233	1	78	3	0.0	-7.6500001	22.70100021	20.03199959
         234	1	78	4	0.0	-6.53800011	20.03000069	18.45100021
         235	1	79	1	0.0	-5.65100002	22.95199966	21.81100082
         236	1	79	3	0.0	-6.19000006	25.06200027	22.70299911
         237	1	79	4	0.0	-4.86499977	22.23600006	22.97800064
         238	1	80	1	0.0	-4.25699997	26.45499992	21.24699974
         239	1	80	3	0.0	-4.64300013	28.56299973	20.25399971
         240	1	80	4	0.0	-2.74399996	26.60000038	21.6079998
         241	1	81	1	0.0	-4.63600016	27.67099953	17.62100029
         242	1	81	3	0.0	-6.37300014	28.84000015	16.43600082
         243	1	81	4	0.0	-3.52699995	27.20599937	16.60499954
         244	1	82	1	0.0	-7.68300009	26.49699974	15.64900017
         245	1	82	3	0.0	-9.45800018	28.02400017	15.10499954
         246	1	82	4	0.0	-7.99599981	24.97100067	15.41399956
         247	1	83	1	0.0	-10.25800037	28.2689991	17.77899933
         248	1	83	3	0.0	-11.03800011	30.28800011	16.81900024
         249	1	83	4	0.0	-10.48400021	28.15299988	19.29599953
         250	1	84	1	0.0	-8.61400032	31.67499924	17.33099937
         251	1	84	3	0.0	-8.45499992	33.00999832	15.34899998
         252	1	84	4	0.0	-7.47800016	32.22499847	18.20800018
         253	1	85	1	0.0	-7.74499989	30.93400002	13.72200012
         254	1	85	3	0.0	-9.12699986	31.8560009	11.99100018
         255	1	85	4	0.0	-6.9289999	29.79899979	13.13300037
         256	1	86	1	0.0	-11.42099953	30.54400063	12.79500008
         257	1	86	3	0.0	-13.03600025	32.20700073	12.16899967
         258	1	86	4	0.0	-12.35599995	29.47200012	13.31000042
         259	1	87	1	0.0	-12.30599976	33.90999985	14.35599995
         260	1	87	3	0.0	-12.08100033	36.13999939	13.45300007
         261	1	87	4	0.0	-12.24499989	34.09999847	15.8760004
         262	1	88	1	0.0	-9.42199993	35.7179985	12.73400021
         263	1	88	3	0.0	-8.6590004	35.99700165	10.52900028
         264	1	88	4	0.0	-7.954	35.69800186	13.16100025
         265	1	89	1	0.0	-10.3739996	34.18199921	9.44200039
         266	1	89	3	0.0	-8.82299995	33.65299988	7.68400002
         267	1	89	5	0.0	-10.33500004	32.194196	7.83573499
         268	1	90	1	0.0	-7.39099979	31.81200027	9.16600037
         269	1	90	3	0.0	-5.52600002	32.34199905	7.76000023
         270	1	90	4	0.0	-7.84000015	30.84199905	8.04699993
         271	1	91	1	0.0	-4.83500004	34.58599854	9.43099976
         272	1	91	3	0.0	-4.41800022	34.56600189	11.83199978
         273	1	91	4	0.0	-5.22800016	36.04100037	9.07800007
         274	1	92	1	0.0	-1.73599994	35.33599854	11.43799973
         275	1	92	3	0.0	-2.69499993	37.55099869	11.27499962
         276	1	92	4	0.0	-0.29699999	35.04000092	10.83600044
         277	1	93	1	0.0	-1.38699996	38.61000061	13.44499969
         278	1	93	3	0.0	-1.48099995	40.75899887	12.38000011
         279	1	93	4	0.0	-0.48899999	38.74200058	14.66699982
         280	1	94	1	0.0	0.39399999	40.0929985	10.37100029
         281	1	94	3	0.0	0.012	40.3429985	8.0170002
         282	1	94	4	0.0	1.88	39.86199951	10.13000011
         283	1	95	1	0.0	-2.61100006	39.21300125	8.17599964
         284	1	95	3	0.0	-2.75500011	38.5719986	5.91800022
         285	1	95	4	0.0	-3.11299992	40.54499817	7.53200006
         286	1	96	1	0.0	-1.10599995	36.38299942	6.12200022
         287	1	96	3	0.0	-2.2420001	34.88800049	7.63600016
         288	1	96	4	0.0	0.38299999	36.11500168	5.88999987
         289	1	97	1	0.0	-2.78299999	32.97499847	5.63700008
         290	1	97	3	0.0	-0.65600002	32.20500183	6.48400021
         291	1	97	4	0.0	-2.852	32.35900116	4.2670002
         292	1	98	1	0.0	-1.68599999	30.60899925	8.38799953
         293	1	98	3	0.0	-1.27900004	29.02899933	6.52600002
         294	1	98	4	0.0	-2.55999994	30.11300087	9.5369997
         295	1	99	1	0.0	0.875	27.94099998	7.68599987
         296	1	99	3	0.0	-0.62900001	26.30200005	8.64000034
         297	1	99	4	0.0	2.19700003	27.56399918	8.40600014
         298	1	100	1	0.0	-0.611	24.76799965	6.20699978
         299	1	100	3	0.0	-2.84599996	24.00900078	6.71700001
         300	1	100	4	0.0	-0.106	23.71100044	7.1869998
         301	1	101	1	0.0	-4.03599977	26.4470005	6.12099981
         302	1	101	3	0.0	-5.99900007	25.23600006	5.71099997
         303	1	101	4	0.0	-4.25400019	27.88800049	5.55800009
         304	1	102	1	0.0	-4.89900017	23.95199966	3.36999989
         305	1	102	3	0.0	-6.38800001	22.17900085	4.0
         306	1	102	4	0.0	-4.10300016	23.5909996	2.13199997
         307	1	103	1	0.0	-4.61100006	21.02700043	5.79500008
         308	1	103	3	0.0	-6.3499999	20.49099922	7.30299997
         309	1	103	4	0.0	-3.26099992	20.29700089	6.01200008
         310	1	104	1	0.0	-6.0630002	22.7310009	8.90400028
         311	1	104	3	0.0	-8.35499954	22.46699905	9.34899998
         312	1	104	4	0.0	-5.44799995	23.96899986	9.56299973
         313	1	105	1	0.0	-9.24499989	23.76099968	6.94799995
         314	1	105	3	0.0	-11.07400036	22.125	6.86999989
         315	1	105	4	0.0	-9.25599957	24.70299911	5.73600006
         316	1	106	1	0.0	-9.47900009	20.25300026	5.53100014
         317	1	106	3	0.0	-10.79899979	18.77300072	6.91400003
         318	1	106	4	0.0	-8.43099976	19.65999985	4.61499977
         319	1	107	1	0.0	-9.10400009	18.77799988	9.04100037
         320	1	107	3	0.0	-11.09399986	18.49399948	10.29199982
         321	1	107	4	0.0	-7.84299994	18.88400078	9.93200016
         322	1	108	1	0.0	-11.56299973	21.30400085	10.54599953
         323	1	108	3	0.0	-13.80099964	20.56699944	10.82800007
         324	1	108	4	0.0	-11.36800003	22.8029995	10.49400043
         325	1	109	1	0.0	-14.17700005	20.27799988	7.95499992
         326	1	109	3	0.0	-15.67700005	18.5890007	8.66499996
         327	1	109	4	0.0	-14.06000042	20.3920002	6.47800016
         328	1	110	1	0.0	-13.77099991	16.58600044	9.0340004
         329	1	110	3	0.0	-15.01799965	15.73700047	10.92300034
         330	1	110	4	0.0	-12.56999969	15.73400021	8.63199997
         331	1	111	1	0.0	-13.80500031	17.32600021	12.77799988
         332	1	111	3	0.0	-15.83500004	17.31399918	14.08100033
         333	1	111	4	0.0	-12.77200031	18.28700066	13.39400005
         334	1	112	1	0.0	-17.06399918	19.22400093	12.35999966
         335	1	112	3	0.0	-19.35099983	18.59199905	12.61100006
         336	1	112	5	0.0	-15.77200031	19.172263	11.76696972
         337	1	113	1	0.0	-18.94499969	16.07299995	11.4119997
         338	1	113	3	0.0	-19.80599976	14.13000011	12.45699978
         339	1	113	4	0.0	-18.67000008	15.23799992	10.16100025
         340	1	114	1	0.0	-18.09799957	14.16899967	14.6239996
         341	1	114	3	0.0	-17.57900047	15.84200001	16.20299911
         342	1	114	4	0.0	-16.82999992	13.22700024	14.36499977
         343	1	115	1	0.0	-17.92499924	14.07499981	18.42000008
         344	1	115	3	0.0	-16.43099976	12.20800018	18.40800095
         345	1	115	4	0.0	-18.96800041	13.49499989	19.34499931
         346	1	116	1	0.0	-14.15400028	13.72599983	19.05999947
         347	1	116	3	0.0	-13.70600033	14.95199966	21.02099991
         348	1	116	4	0.0	-13.14700031	14.60499954	18.18300056
         349	1	117	1	0.0	-12.19999981	12.80500031	22.18700027
         350	1	117	3	0.0	-10.48900032	11.66100025	20.98900032
         351	1	117	4	0.0	-12.78100014	11.65799999	22.95199966
         352	1	118	1	0.0	-8.44699955	13.4989996	21.80699921
         353	1	118	3	0.0	-7.66099977	13.24699974	24.03700066
         354	1	118	4	0.0	-7.98000002	14.98499966	21.58099937
         355	1	119	1	0.0	-5.84499979	11.26900005	23.47699928
         356	1	119	3	0.0	-3.89899993	11.02999973	22.07600021
         357	1	119	4	0.0	-6.10099983	9.77099991	23.5
         358	1	120	1	0.0	-2.41400003	12.9090004	23.52700043
         359	1	120	3	0.0	-1.41600001	11.9090004	25.45999908
         360	1	120	4	0.0	-2.2190001	14.32299995	24.00099945
         361	1	121	1	0.0	0.056	10.05900002	24.09000015
         362	1	121	3	0.0	1.71500003	11.47999954	23.14699936
         363	1	121	4	0.0	-0.148	8.64500046	23.5529995
         364	1	122	1	0.0	3.75900006	10.31900024	24.83699989
         365	1	122	3	0.0	3.95900011	8.14599991	23.74300003
         366	1	122	4	0.0	4.46000004	10.23900032	26.14500046
         367	1	123	1	0.0	5.96799994	9.02299976	22.06599998
         368	1	123	3	0.0	6.5250001	6.74599981	21.66900063
         369	1	123	5	0.0	5.32999992	8.49817562	19.42061642
         370	1	124	1	0.0	7.60900021	6.3130002	24.14100075
         371	1	124	3	0.0	7.09700012	4.59800005	25.71500015
         372	1	124	4	0.0	8.89299965	6.55999994	24.98200035
         373	1	125	1	0.0	4.38399982	5.41800022	25.91300011
         374	1	125	3	0.0	1.99000001	5.48899984	25.87899971
         375	1	125	4	0.0	4.34100008	6.12400007	27.26199913
         376	1	126	1	0.0	1.84200001	4.85200024	23.09600067
         377	1	126	3	0.0	2.07599998	2.43400002	23.72500038
         378	1	126	5	0.0	3.03299999	5.27073061	20.80895056
         379	1	127	1	0.0	-0.23999999	1.72899997	22.4810009
         380	1	127	3	0.0	1.051	1.78600001	20.49099922
         381	1	127	4	0.0	-1.78100002	1.72899997	22.14299965
         382	1	128	1	0.0	0.78399998	-1.00899994	20.08099937
         383	1	128	3	0.0	0.95999998	-0.51800001	17.70299911
         384	1	128	4	0.0	0.118	-2.38899994	20.24300003
         385	1	129	1	0.0	-1.30700004	0.84899998	17.51300049
         386	1	129	3	0.0	-0.32499999	2.26300001	15.92099953
         387	1	129	4	0.0	-2.77800012	1.23899996	17.68000031
         388	1	130	1	0.0	0.67299998	4.05299997	17.76300049
         389	1	130	3	0.0	2.45700002	4.21400023	16.18700027
         390	1	130	4	0.0	0.79900002	5.00099993	18.91200066
         391	1	131	1	0.0	3.921	2.11400008	17.23999977
         392	1	131	3	0.0	4.77400017	1.89600003	15.01599979
         393	1	131	4	0.0	4.45699978	1.04100001	18.17399979
         394	1	132	1	0.0	2.53800011	0.41800001	14.1590004
         395	1	132	3	0.0	2.89400005	1.58399999	12.04699993
         396	1	132	4	0.0	1.37699997	-0.56999999	14.20600033
         397	1	133	1	0.0	1.58800006	3.83500004	12.79199982
         398	1	133	3	0.0	3.18400002	4.84100008	11.32199955
         399	1	133	4	0.0	0.76099998	4.9380002	13.47000027
         400	1	134	1	0.0	5.23799992	5.00199986	13.27000046
         401	1	134	3	0.0	6.48799992	4.71199989	11.21199989
         402	1	134	4	0.0	5.96899986	4.81599998	14.5909996
         403	1	135	1	0.0	6.45900011	1.92900002	11.38700008
         404	1	135	3	0.0	6.71700001	2.15199995	9.02000046
         405	1	135	4	0.0	6.20499992	0.50599998	11.88399982
         406	1	136	1	0.0	3.99799991	2.49099994	8.54500008
         407	1	136	3	0.0	4.7670002	3.89700007	6.78999996
         408	1	136	4	0.0	2.43899989	2.51699996	8.59899998
         409	1	137	1	0.0	4.8130002	6.21500015	8.33100033
         410	1	137	3	0.0	6.57200003	6.76900005	6.76599979
         411	1	137	4	0.0	4.5619998	7.13800001	9.51099968
         412	1	138	1	0.0	8.57999992	5.57399988	8.21199989
         413	1	138	3	0.0	9.39900017	5.19099998	6.0079999
         414	1	138	4	0.0	9.47299957	5.14400005	9.34700012
         415	1	139	1	0.0	8.09700012	2.84299994	5.58300018
         416	1	139	3	0.0	8.27400017	3.58800006	3.2809999
         417	1	139	4	0.0	7.2670002	1.57700002	5.77799988
         418	1	140	1	0.0	6.03299999	5.10300016	3.36100006
         419	1	140	3	0.0	7.11299992	6.34700012	1.69099998
         420	1	140	4	0.0	4.65100002	5.69000006	3.57800007
         421	1	141	1	0.0	8.60000038	7.92000008	3.4849999
         422	1	141	3	0.0	10.42199993	8.1239996	1.90499997
         423	1	141	4	0.0	9.07400036	8.64799976	4.74900007
         424	1	142	1	0.0	11.07199955	5.3920002	2.05200005
         425	1	142	3	0.0	11.63500023	4.65299988	-0.147
         426	1	142	4	0.0	11.52799988	4.14799976	2.80999994
         427	1	143	1	0.0	9.00599957	4.77400017	-1.07500005
         428	1	143	3	0.0	6.6960001	5.11899996	-1.60300004
         429	1	143	4	0.0	8.84399986	3.26399994	-1.10399997
         430	1	144	1	0.0	6.96600008	7.90500021	-1.82799995
         431	1	144	3	0.0	7.20200014	7.76399994	-4.171
         432	1	144	4	0.0	7.6500001	9.25800037	-1.56299996
         433	1	145	1	0.0	4.43200016	7.82700014	-4.62900019
         434	1	145	3	0.0	2.97900009	9.03199959	-6.07200003
         435	1	145	4	0.0	3.66400003	6.46000004	-4.81400013
         436	1	146	1	0.0	2.26399994	10.97700024	-4.24800014
         437	1	146	3	0.0	4.10500002	12.33899975	-3.62199998
         438	1	146	4	0.0	1.12	10.86900043	-3.2579999
         439	1	147	1	0.0	2.77900004	14.70800018	-4.60599995
         440	1	147	3	0.0	0.71100003	15.27499962	-3.54299998
         441	1	147	4	0.0	2.47900009	15.45600033	-5.90700006
         442	1	148	1	0.0	1.99899995	17.01799965	-1.64100003
         443	1	148	3	0.0	2.69099998	19.29500008	-2.33999991
         444	1	148	4	0.0	2.74799991	17.06500053	-0.336
         445	1	149	1	0.0	0.303	19.63299942	-3.7750001
         446	1	149	3	0.0	1.046	21.90600014	-3.27999997
         447	1	149	4	0.0	-1.08800006	19.19400024	-4.41400003
         448	1	150	1	0.0	-0.32100001	21.96500015	-0.89399999
         449	1	150	3	0.0	0.85100001	23.59000015	0.329
         450	1	150	5	0.0	-0.21600001	21.28661019	-0.36946403
         451	1	151	1	0.0	3.28800011	22.26499939	0.139
         452	1	151	3	0.0	3.82999992	23.76799965	-1.66999996
         453	1	151	4	0.0	4.3039999	21.09399986	0.134
         454	1	152	1	0.0	4.82200003	25.76600075	0.07
         455	1	152	3	0.0	6.04099989	25.93600082	2.13700008
         456	1	152	4	0.0	3.83599997	26.92700005	0.227
         457	1	153	1	0.0	8.29899979	27.06299973	0.96100003
         458	1	153	3	0.0	8.30200005	28.77300072	2.74000001
         459	1	153	4	0.0	9.47200012	27.38500023	0.02
         460	1	154	1	0.0	6.23099995	30.20999908	0.921
         461	1	154	3	0.0	5.63600016	30.06699944	3.24900007
         462	1	154	4	0.0	5.34600019	30.2329998	-0.347
         463	1	155	1	0.0	3.10500002	31.44599915	2.72399998
         464	1	155	3	0.0	2.51399994	31.27000046	5.01100016
         465	1	155	4	0.0	1.76499999	31.39299965	1.93799996

Bond Coeffs

           1	200.0	3.77
           2	200.0	2.41
           3	200.0	2.50
           4	200.0	1.54
           5	200.0	1.54
Bonds

           1	2	1	2
           2	4	1	3
           3	1	1	4
           4	3	2	4
           5	2	4	5
           6	4	4	6
           7	1	4	7
           8	3	5	7
           9	2	7	8
          10	4	7	9
          11	1	7	10
          12	3	8	10
          13	2	10	11
          14	4	10	12
          15	1	10	13
          16	3	11	13
          17	2	13	14
          18	4	13	15
          19	1	13	16
          20	3	14	16
          21	2	16	17
          22	4	16	18
          23	1	16	19
          24	3	17	19
          25	2	19	20
          26	4	19	21
          27	1	19	22
          28	3	20	22
          29	2	22	23
          30	4	22	24
          31	1	22	25
          32	3	23	25
          33	2	25	26
          34	4	25	27
          35	1	25	28
          36	3	26	28
          37	2	28	29
          38	4	28	30
          39	1	28	31
          40	3	29	31
          41	2	31	32
          42	5	31	33
          43	1	31	34
          44	3	32	34
          45	2	34	35
          46	4	34	36
          47	1	34	37
          48	3	35	37
          49	2	37	38
          50	4	37	39
          51	1	37	40
          52	3	38	40
          53	2	40	41
          54	4	40	42
          55	1	40	43
          56	3	41	43
          57	2	43	44
          58	5	43	45
          59	1	43	46
          60	3	44	46
          61	2	46	47
          62	4	46	48
          63	1	46	49
          64	3	47	49
          65	2	49	50
          66	4	49	51
          67	1	49	52
          68	3	50	52
          69	2	52	53
          70	5	52	54
          71	1	52	55
          72	3	53	55
          73	2	55	56
          74	4	55	57
          75	1	55	58
          76	3	56	58
          77	2	58	59
          78	5	58	60
          79	1	58	61
          80	3	59	61
          81	2	61	62
          82	5	61	63
          83	1	61	64
          84	3	62	64
          85	2	64	65
          86	4	64	66
          87	1	64	67
          88	3	65	67
          89	2	67	68
          90	5	67	69
          91	1	67	70
          92	3	68	70
          93	2	70	71
          94	4	70	72
          95	1	70	73
          96	3	71	73
          97	2	73	74
          98	4	73	75
          99	1	73	76
         100	3	74	76
         101	2	76	77
         102	4	76	78
         103	1	76	79
         104	3	77	79