ITEM: TIMESTEP
0
ITEM: NUMBER OF ATOMS
465
ITEM: BOX BOUNDS ss ss ss
-22.573 15.224
-5.654 40.799
-6.112 27.302
ITEM: ATOMS id type xs ys zs
1 1 0.126756 0.0174155 0.737924
2 3 0.111093 0.0481777 0.792991
3 4 0.091039 0.0160377 0.717484
4 1 0.159457 0.0907584 0.773388
5 3 0.121809 0.119519 0.73137
6 4 0.197 0.100532 0.763991
7 1 0.0946901 0.150453 0.798917
8 3 0.0864883 0.199427 0.783594
9 4 0.0745033 0.151379 0.838481
10 1 0.159933 0.211612 0.778027
11 3 0.202185 0.181474 0.745257
12 4 0.175252 0.224937 0.815407
13 1 0.213774 0.220567 0.6819
14 3 0.252904 0.250145 0.71886
15 4 0.202979 0.24218 0.649129
16 1 0.313411 0.216197 0.702999
17 3 0.339154 0.205713 0.637637
18 4 0.328889 0.192517 0.728737
19 1 0.381882 0.255355 0.639522
20 3 0.417546 0.272727 0.693033
21 4 0.36831 0.283168 0.618812
22 1 0.482419 0.255484 0.655863
23 3 0.49496 0.257787 0.585802
24 4 0.498029 0.226552 0.66954
25 1 0.542345 0.302047 0.592117
26 3 0.59055 0.316492 0.637368
27 4 0.524936 0.331927 0.579996
28 1 0.639204 0.317762 0.572455
29 3 0.634706 0.321465 0.50018
30 4 0.662037 0.294599 0.591159
31 1 0.691483 0.359654 0.494553
32 3 0.745271 0.364347 0.532112
33 5 0.676773 0.355878 0.438179
34 1 0.78866 0.359309 0.464446
35 3 0.786015 0.374099 0.396331
36 4 0.802127 0.327471 0.462501
37 1 0.85102 0.401589 0.39678
38 3 0.904807 0.402773 0.434339
39 4 0.837791 0.432265 0.394356
40 1 0.948382 0.392483 0.370952
41 3 0.998942 0.422298 0.374244
42 4 0.959044 0.367899 0.343359
43 1 0.967484 0.472714 0.352248
44 3 0.912189 0.492476 0.369935
45 5 0.948832 0.46132 0.333617
46 1 0.932349 0.54892 0.354133
47 3 0.952827 0.592018 0.32645
48 4 0.938778 0.564485 0.393578
49 1 0.897743 0.539362 0.278117
50 3 0.9478 0.515984 0.246903
51 4 0.871604 0.552752 0.247621
52 1 0.912956 0.461692 0.248339
53 3 0.850623 0.448389 0.249446
54 5 0.901262 0.427063 0.233803
55 1 0.864063 0.391945 0.223918
56 3 0.869328 0.387209 0.293799
57 4 0.885044 0.366478 0.209014
58 1 0.797471 0.374163 0.306279
59 3 0.755933 0.348223 0.265248
60 5 0.814774 0.364258 0.340049
61 1 0.718708 0.326028 0.329084
62 3 0.708442 0.341248 0.397319
63 5 0.749795 0.294364 0.293901
64 1 0.645342 0.311089 0.403424
65 3 0.635712 0.263858 0.378704
66 4 0.615552 0.333584 0.394655
67 1 0.603937 0.246357 0.452116
68 3 0.572823 0.270682 0.504369
69 5 0.620869 0.208289 0.428077
70 1 0.509273 0.245474 0.49174
71 3 0.489854 0.199234 0.46699
72 4 0.485091 0.269477 0.477165
73 1 0.45792 0.183304 0.539385
74 3 0.42043 0.21144 0.580954
75 4 0.475964 0.163865 0.57009
76 1 0.356563 0.188987 0.543036
77 3 0.33418 0.142273 0.527354
78 4 0.342699 0.201516 0.502664
79 1 0.299786 0.135147 0.600407
80 3 0.250575 0.162228 0.622314
81 4 0.30595 0.125998 0.643832
82 1 0.210572 0.14858 0.550189
83 3 0.197476 0.104062 0.513467
84 4 0.212107 0.170258 0.517268
85 1 0.130778 0.0996922 0.552702
86 3 0.159325 0.0797796 0.610642
87 4 0.119189 0.0966999 0.510325
88 1 0.174644 0.0267152 0.572515
89 3 0.228643 0.000861085 0.561112
90 5 0.156229 0.0123431 0.577386
91 1 0.253115 0.0398898 0.502155
92 3 0.272191 0.078574 0.543006
93 4 0.250681 0.050395 0.45852
94 1 0.345027 0.0692313 0.520111
95 3 0.374395 0.0568747 0.460136
96 4 0.373389 0.0528276 0.542228
97 1 0.372411 0.114654 0.429969
98 3 0.412096 0.143651 0.469713
99 4 0.347832 0.13631 0.410157
100 1 0.467577 0.138721 0.412372
101 3 0.469799 0.1466 0.340696
102 4 0.496971 0.114331 0.416682
103 1 0.491759 0.203001 0.349015
104 3 0.542001 0.217962 0.387173
105 4 0.469693 0.229931 0.35126
106 1 0.584782 0.223904 0.319058
107 3 0.584491 0.217446 0.24804
108 4 0.606371 0.198373 0.334381
109 1 0.625288 0.265989 0.23137
110 3 0.662037 0.296084 0.272191
111 4 0.594756 0.283276 0.213473
112 1 0.713363 0.303899 0.212157
113 3 0.695082 0.322089 0.14886
114 5 0.680768 0.293298 0.232769
115 1 0.726433 0.377801 0.165709
116 3 0.785618 0.385874 0.187466
117 4 0.707649 0.403117 0.187017
118 1 0.808689 0.400986 0.108278
119 3 0.858349 0.423374 0.138295
120 4 0.810249 0.401869 0.0608128
121 1 0.822605 0.473274 0.160681
122 3 0.768553 0.498827 0.169989
123 4 0.834325 0.493682 0.128389
124 1 0.770643 0.497234 0.25202
125 3 0.82279 0.504854 0.28934
126 4 0.739397 0.474544 0.255222
127 1 0.787814 0.511657 0.362962
128 3 0.74281 0.4804 0.383941
129 4 0.783978 0.543496 0.38005
130 1 0.77567 0.470906 0.460316
131 3 0.716036 0.463716 0.485545
132 4 0.802339 0.471272 0.494823
133 1 0.700558 0.521344 0.490124
134 3 0.640871 0.509784 0.475908
135 4 0.706405 0.553893 0.494643
136 1 0.649496 0.512432 0.392829
137 3 0.607694 0.474587 0.392321
138 4 0.660899 0.521172 0.350572
139 1 0.657116 0.430435 0.402496
140 3 0.612456 0.402493 0.435656
141 4 0.69114 0.412417 0.400431
142 1 0.623251 0.429596 0.510744
143 3 0.560203 0.425914 0.521638
144 4 0.640606 0.44587 0.545161
145 1 0.544144 0.474049 0.477764
146 3 0.494113 0.447851 0.451847
147 4 0.545758 0.504897 0.462052
148 1 0.529354 0.426431 0.385766
149 3 0.487023 0.388328 0.389807
150 4 0.554197 0.423137 0.35117
151 1 0.52229 0.358599 0.449782
152 3 0.464243 0.341054 0.459717
153 4 0.5488 0.350462 0.483061
154 1 0.44567 0.389555 0.511791
155 3 0.388311 0.384668 0.487011
156 4 0.449533 0.414849 0.539325
157 1 0.402836 0.418832 0.415963
158 3 0.355002 0.389512 0.389328
159 4 0.417493 0.441715 0.386365
160 1 0.399344 0.348244 0.356886
161 3 0.351245 0.316191 0.36793
162 4 0.430484 0.335522 0.334141
163 1 0.36532 0.304437 0.44622
164 3 0.30259 0.299959 0.449811
165 4 0.383628 0.298689 0.485306
166 1 0.290605 0.358061 0.467559
167 3 0.23568 0.352937 0.430478
168 4 0.29423 0.388393 0.485096
169 1 0.2651 0.366241 0.357994
170 3 0.228272 0.335371 0.318609
171 4 0.286213 0.380514 0.326001
172 1 0.249597 0.285471 0.357694
173 3 0.193746 0.260823 0.361166
174 4 0.277165 0.26261 0.370294
175 1 0.17086 0.293006 0.428294
176 3 0.144191 0.329731 0.387951
177 4 0.175358 0.305298 0.469414
178 1 0.0837368 0.296773 0.371252
179 3 0.0247374 0.312617 0.372688
180 4 0.0736567 0.273395 0.341414
181 1 0.0210864 0.314038 0.457623
182 3 0.0686034 0.327815 0.498055
183 4 0.00105829 0.288787 0.476118
184 1 0.0289706 0.360127 0.551745
185 3 0.0155833 0.31815 0.588197
186 4 0.00357174 0.381698 0.571976
187 1 0.080509 0.315738 0.627671
188 3 0.102468 0.356705 0.664063
189 4 0.107654 0.294513 0.610912
190 1 0.117205 0.319226 0.733106
191 3 0.160568 0.280821 0.724158
192 4 0.0975475 0.309194 0.768869
193 1 0.217028 0.318472 0.718411
194 3 0.23822 0.342841 0.777698
195 4 0.227187 0.334725 0.679236
196 1 0.296637 0.309087 0.78512
197 3 0.333201 0.287366 0.736637
198 4 0.299442 0.287323 0.819387
199 1 0.37958 0.334833 0.730682
200 3 0.415006 0.355327 0.784911
201 4 0.373892 0.358018 0.699048
202 1 0.469746 0.314985 0.774077
203 3 0.506389 0.306094 0.716376
204 4 0.473344 0.284653 0.792273
205 1 0.554674 0.349235 0.738164
206 3 0.570707 0.377737 0.794727
207 4 0.545387 0.371666 0.704375
208 1 0.643728 0.374572 0.779344
209 3 0.681588 0.414397 0.771563
210 4 0.673889 0.35283 0.786287
211 1 0.646903 0.436549 0.703238
212 3 0.614282 0.471423 0.743192
213 4 0.625843 0.439606 0.664871
214 1 0.67 0.506297 0.757078
215 3 0.632828 0.5475 0.749357
216 4 0.707384 0.516867 0.767882
217 1 0.643834 0.550686 0.667295
218 3 0.585443 0.57105 0.668462
219 4 0.661825 0.547866 0.626863
220 1 0.550705 0.519557 0.660382
221 3 0.51131 0.546143 0.704405
222 4 0.537635 0.489269 0.650775
223 1 0.540281 0.529223 0.773718
224 3 0.517316 0.573784 0.795056
225 4 0.560679 0.514455 0.806399
226 1 0.571421 0.608055 0.773807
227 3 0.523454 0.642736 0.763961
228 4 0.606979 0.620821 0.761597
229 1 0.511681 0.620692 0.684863
230 3 0.455486 0.641358 0.705363
231 5 0.538297 0.598692 0.613529
232 1 0.429928 0.586657 0.732178
233 3 0.39482 0.610402 0.782427
234 4 0.42424 0.552903 0.735111
235 1 0.447708 0.615805 0.835668
236 3 0.433447 0.661227 0.862363
237 4 0.468503 0.600392 0.870593
238 1 0.484589 0.691215 0.818789
239 3 0.474376 0.736594 0.78907
240 4 0.524618 0.694336 0.829592
241 1 0.474561 0.717392 0.710271
242 3 0.428605 0.742557 0.674807
243 4 0.503902 0.707382 0.679865
244 1 0.393947 0.692119 0.651254
245 3 0.346985 0.724991 0.634973
246 4 0.385666 0.659269 0.644221
247 1 0.32582 0.730265 0.715
248 3 0.305183 0.773728 0.686269
249 4 0.31984 0.727768 0.7604
250 1 0.369315 0.803586 0.701592
251 3 0.373522 0.832325 0.642276
252 4 0.39937 0.815426 0.727839
253 1 0.392306 0.787635 0.593584
254 3 0.355743 0.807483 0.541779
255 4 0.413895 0.763202 0.575956
256 1 0.29505 0.779239 0.565841
257 3 0.252322 0.815039 0.547106
258 4 0.270312 0.756162 0.581253
259 1 0.271635 0.8517 0.612558
260 3 0.277588 0.899705 0.585533
261 4 0.273249 0.85579 0.658048
262 1 0.347938 0.890621 0.564015
263 3 0.368124 0.896627 0.498025
264 4 0.386777 0.89019 0.576794
265 1 0.322751 0.857555 0.465494
266 3 0.363786 0.846167 0.412881
267 5 0.323782 0.814763 0.417422
268 1 0.401672 0.806536 0.457234
269 3 0.451015 0.817945 0.415155
270 4 0.389793 0.785654 0.423745
271 1 0.469297 0.866252 0.465164
272 3 0.480329 0.865821 0.53702
273 4 0.458899 0.897574 0.4546
274 1 0.551287 0.882397 0.525229
275 3 0.525915 0.93008 0.520351
276 4 0.589359 0.876025 0.507213
277 1 0.560521 0.952877 0.585294
278 3 0.558034 0.999139 0.553421
279 4 0.584279 0.955719 0.621865
280 1 0.607641 0.984802 0.493296
281 3 0.597534 0.990184 0.422847
282 4 0.646956 0.979829 0.486084
283 1 0.528137 0.965858 0.427605
284 3 0.524327 0.952059 0.360029
285 4 0.514856 0.994532 0.408332
286 1 0.567955 0.904936 0.366134
287 3 0.5379 0.872753 0.411444
288 4 0.60735 0.899167 0.359191
289 1 0.523587 0.831572 0.351619
290 3 0.579861 0.814996 0.376968
291 4 0.521761 0.818311 0.310618
292 1 0.55261 0.780638 0.43395
293 3 0.563378 0.746626 0.378225
294 4 0.529486 0.769961 0.468337
295 1 0.620367 0.723204 0.412941
296 3 0.580575 0.687921 0.441492
297 4 0.655343 0.715088 0.434489
298 1 0.581051 0.654899 0.368678
299 3 0.52192 0.638559 0.383941
300 4 0.594412 0.632144 0.398007
301 1 0.490436 0.691043 0.366104
302 3 0.4385 0.664973 0.353834
303 4 0.484668 0.722063 0.349255
304 1 0.467603 0.637332 0.283773
305 3 0.428209 0.599165 0.302628
306 4 0.488663 0.629561 0.246723
307 1 0.475223 0.574366 0.356348
308 3 0.429214 0.562827 0.401478
309 4 0.51094 0.558651 0.362842
310 1 0.436807 0.611048 0.449392
311 3 0.376167 0.605365 0.46271
312 4 0.453078 0.637698 0.469115
313 1 0.352621 0.633221 0.390854
314 3 0.304231 0.598002 0.38852
315 4 0.35233 0.653499 0.354582
316 1 0.34643 0.557704 0.348447
317 3 0.311506 0.525843 0.389837
318 4 0.374157 0.544938 0.321033
319 1 0.356351 0.525951 0.453493
320 3 0.303701 0.519837 0.490932
321 4 0.389713 0.528233 0.480158
322 1 0.291293 0.580329 0.498534
323 3 0.232082 0.564463 0.506973
324 4 0.296452 0.612598 0.496977
325 1 0.222134 0.558242 0.420991
326 3 0.182448 0.521882 0.44224
327 4 0.22523 0.560696 0.376788
328 1 0.232876 0.478764 0.453283
329 3 0.199884 0.460487 0.509816
330 4 0.264651 0.460422 0.441252
331 1 0.231976 0.494694 0.565332
332 3 0.178268 0.494435 0.604328
333 4 0.259306 0.515381 0.583767
334 1 0.145752 0.535552 0.552822
335 3 0.0852449 0.521947 0.560334
336 5 0.179935 0.534438 0.535074
337 1 0.0959865 0.46772 0.524451
338 3 0.0732069 0.425893 0.555725
339 4 0.103262 0.449745 0.487011
340 1 0.118396 0.426732 0.620578
341 3 0.132127 0.462747 0.667834
342 4 0.151943 0.406454 0.612827
343 1 0.122973 0.424709 0.734183
344 3 0.1625 0.384518 0.733824
345 4 0.095378 0.412223 0.761866
346 1 0.222743 0.417196 0.753337
347 3 0.234595 0.443588 0.812025
348 4 0.249385 0.436118 0.72709
349 1 0.27444 0.397369 0.84692
350 3 0.319708 0.372742 0.811067
351 4 0.259068 0.372678 0.869815
352 1 0.373733 0.412309 0.835548
353 3 0.394529 0.406884 0.902287
354 4 0.386089 0.444299 0.828784
355 1 0.442575 0.364304 0.885527
356 3 0.49406 0.359159 0.843599
357 4 0.435802 0.332056 0.886215
358 1 0.533349 0.399608 0.887023
359 3 0.559753 0.378081 0.944873
360 4 0.538508 0.430048 0.901209
361 1 0.598698 0.338256 0.903873
362 3 0.642591 0.368846 0.875651
363 4 0.593301 0.307817 0.887802
364 1 0.696669 0.343853 0.926229
365 3 0.70196 0.297074 0.893488
366 4 0.715216 0.342131 0.965374
367 1 0.755113 0.315954 0.843299
368 3 0.769849 0.266936 0.831418
369 5 0.738233 0.304656 0.764129
370 1 0.798529 0.257615 0.905399
371 3 0.784983 0.220696 0.952505
372 4 0.8325 0.262932 0.930568
373 1 0.713205 0.238348 0.958431
374 3 0.649866 0.239877 0.957413
375 4 0.712067 0.253547 0.998803
376 1 0.645951 0.226164 0.874125
377 3 0.652142 0.174111 0.892949
378 5 0.677461 0.235178 0.805679
379 1 0.590867 0.158935 0.855719
380 3 0.625023 0.160162 0.796163
381 4 0.550097 0.158935 0.845604
382 1 0.617959 0.0999935 0.783893
383 3 0.622616 0.110563 0.712725
384 4 0.600339 0.0702861 0.788741
385 1 0.562637 0.139991 0.707039
386 3 0.588618 0.17043 0.659394
387 4 0.523719 0.148387 0.712037
388 1 0.615022 0.208964 0.714521
389 3 0.662222 0.21243 0.667355
390 4 0.618356 0.229372 0.748908
391 1 0.700955 0.167223 0.698869
392 3 0.723523 0.16253 0.63231
393 4 0.715136 0.144124 0.726821
394 1 0.664365 0.130713 0.606662
395 3 0.673784 0.155813 0.543455
396 4 0.633648 0.109444 0.608069
397 1 0.639231 0.204271 0.565751
398 3 0.681456 0.225927 0.521757
399 4 0.617351 0.228015 0.586042
400 1 0.735799 0.229393 0.580056
401 3 0.768871 0.22315 0.518465
402 4 0.755139 0.225389 0.619591
403 1 0.768103 0.16324 0.523703
404 3 0.774929 0.168041 0.452864
405 4 0.761383 0.132607 0.538577
406 1 0.702992 0.175339 0.438648
407 3 0.723338 0.205606 0.386126
408 4 0.661746 0.175898 0.440265
409 1 0.724555 0.255506 0.432244
410 3 0.771093 0.267432 0.385407
411 4 0.717914 0.275375 0.467559
412 1 0.824219 0.241707 0.428683
413 3 0.845887 0.233462 0.362722
414 4 0.847845 0.23245 0.46265
415 1 0.81144 0.182916 0.350003
416 3 0.816123 0.198954 0.28111
417 4 0.789481 0.155663 0.355839
418 1 0.756833 0.231567 0.283504
419 3 0.785406 0.258347 0.233525
420 4 0.720269 0.244204 0.289998
421 1 0.824748 0.292209 0.287215
422 3 0.872953 0.296601 0.239929
423 4 0.837289 0.307881 0.325043
424 1 0.89015 0.237789 0.244329
425 3 0.905045 0.22188 0.178518
426 4 0.902214 0.211009 0.267014
427 1 0.83549 0.224485 0.150745
428 3 0.774374 0.231912 0.134943
429 4 0.831204 0.191979 0.149877
430 1 0.781517 0.291886 0.12821
431 3 0.787761 0.288851 0.0580894
432 4 0.799614 0.321013 0.136141
433 1 0.714475 0.290207 0.0443826
434 3 0.676032 0.316148 0.0011971
435 4 0.694156 0.26078 0.038846
436 1 0.657116 0.358018 0.055785
437 3 0.705823 0.387338 0.0745197
438 4 0.626849 0.355693 0.0854133
439 1 0.670741 0.438336 0.0450709
440 3 0.616028 0.450541 0.0768839
441 4 0.662804 0.454438 0.00613515
442 1 0.650105 0.488063 0.133806
443 3 0.668413 0.537081 0.112887
444 4 0.669921 0.489075 0.172862
445 1 0.605233 0.544357 0.0699407
446 3 0.624891 0.593288 0.0847549
447 4 0.568431 0.534906 0.050817
448 1 0.588724 0.594558 0.156162
449 3 0.619732 0.62954 0.192764
450 5 0.591502 0.579954 0.17186
451 1 0.684208 0.601016 0.187077
452 3 0.698548 0.633371 0.132938
453 4 0.711088 0.575808 0.186928
454 1 0.724793 0.676383 0.185012
455 3 0.757044 0.680042 0.246873
456 4 0.698706 0.701376 0.189711
457 1 0.816784 0.704303 0.211678
458 3 0.816864 0.741115 0.264919
459 4 0.847819 0.711235 0.183516
460 1 0.762071 0.772049 0.210481
461 3 0.746329 0.768971 0.280152
462 4 0.738657 0.772544 0.172532
463 1 0.679366 0.798657 0.26444
464 3 0.66373 0.794868 0.332884
465 4 0.643914 0.797516 0.240917
