LAMMPS protain data file

         168  atoms
         222  bonds
           0  angles
           0  dihedrals
           0  impropers

           5  atom types
           5  bond types
           0  angle types
           0  dihedral types
           0  improper types

-200.0	200.0	xlo xhi
-200.0	200.0	ylo yhi
-200.0	200.0	zlo zhi

Masses

           1	27.0
           2	14.0
           3	28.0
           4	60.0
           5	60.0

Atoms

           1	1	1	1	0.0	11.82600021	13.89999962	7.38399982
           2	1	1	3	0.0	10.20100021	12.13300037	7.30000019
           3	1	1	4	0.0	12.34599972	14.93299961	6.37699986
           4	1	2	1	0.0	8.18400002	13.77499962	6.35200024
           5	1	2	3	0.0	7.74599981	13.50699997	4.00400019
           6	1	2	4	0.0	7.29300022	15.01299953	6.3210001
           7	1	3	1	0.0	7.66400003	10.74300003	4.14400005
           8	1	3	3	0.0	6.09200001	9.7510004	5.66599989
           9	1	3	4	0.0	8.80200005	9.77000046	3.85599995
          10	1	4	1	0.0	4.79400015	8.32600021	3.6789999
          11	1	4	3	0.0	5.37099981	7.37400007	1.54900002
          12	1	4	4	0.0	3.36999989	8.9119997	3.5940001
          13	1	5	1	0.0	5.38800001	4.77400017	2.50300002
          14	1	5	3	0.0	6.1079998	3.3900001	4.32999992
          15	1	5	4	0.0	6.73099995	4.87200022	1.79100001
          16	1	6	1	0.0	4.69899988	1.17700005	3.4460001
          17	1	6	3	0.0	6.26200008	0.85900003	1.64900005
          18	1	6	4	0.0	3.33599997	0.46200001	3.4519999
          19	1	7	1	0.0	7.50199986	-1.30299997	2.85899997
          20	1	7	3	0.0	5.8670001	-2.91100001	2.148
          21	1	7	4	0.0	8.4460001	-1.79999995	3.95000005
          22	1	8	1	0.0	7.05600023	-3.29500008	-0.32300001
          23	1	8	3	0.0	8.06299973	-4.45599985	-2.17000008
          24	1	8	4	0.0	6.44799995	-2.329	-1.33599997
          25	1	9	1	0.0	10.29699993	-5.21099997	-0.71799999
          26	1	9	3	0.0	10.63599968	-7.38600016	-1.67299998
          27	1	9	4	0.0	11.46500015	-5.21299982	0.26199999
          28	1	10	1	0.0	8.46399975	-8.4989996	-0.36500001
          29	1	10	3	0.0	6.38800001	-9.60599995	-0.86500001
          30	1	10	4	0.0	8.21000004	-8.82999992	1.11199999
          31	1	11	1	0.0	5.93400002	-8.10900021	-3.15199995
          32	1	11	3	0.0	7.38399982	-7.97800016	-5.05600023
          33	1	11	4	0.0	5.15299988	-6.79899979	-2.93799996
          34	1	12	1	0.0	3.95000005	-9.01399994	-5.03999996
          35	1	12	3	0.0	4.62200022	-11.20199966	-4.31400013
          36	1	12	4	0.0	3.34599996	-8.67199993	-6.39599991
          37	1	13	1	0.0	2.2650001	-11.67300034	-2.93799996
          38	1	13	3	0.0	1.09899998	-12.2670002	-4.94399977
          39	1	13	4	0.0	1.56200004	-11.36100006	-1.61600006
          40	1	14	1	0.0	0.171	-14.72299957	-4.02400017
          41	1	14	3	0.0	-2.2190001	-14.9289999	-4.02299976
          42	1	14	4	0.0	0.94199997	-16.03100014	-3.91000009
          43	1	15	1	0.0	-2.48699999	-14.05599976	-1.40900004
          44	1	15	3	0.0	-1.34899998	-12.49100018	0.016
          45	1	15	4	0.0	-2.76999998	-15.40499973	-0.75300002
          46	1	16	1	0.0	-3.67499995	-11.18500042	0.75700003
          47	1	16	3	0.0	-5.85099983	-11.68000031	1.64499998
          48	1	16	4	0.0	-4.01900005	-9.95199966	-0.075
          49	1	17	1	0.0	-5.20200014	-10.84300041	4.20300007
          50	1	17	3	0.0	-5.90399981	-8.70199966	3.36599994
          51	1	17	4	0.0	-4.45100021	-10.50899982	5.55700016
          52	1	18	1	0.0	-8.59799957	-9.24699974	3.70600009
          53	1	18	3	0.0	-9.93900013	-7.41300011	4.45599985
          54	1	18	4	0.0	-9.73499966	-10.20199966	3.31599998
          55	1	19	1	0.0	-8.10400009	-6.59899998	6.35699987
          56	1	19	3	0.0	-7.58500004	-5.52799988	4.26999998
          57	1	19	4	0.0	-6.89900017	-6.58300018	7.30200005
          58	1	20	1	0.0	-9.08600044	-3.27200007	4.83900023
          59	1	20	3	0.0	-8.7159996	-1.69200003	6.61399984
          60	1	20	4	0.0	-10.56400013	-3.02200007	4.49300003
          61	1	21	1	0.0	-6.57399988	-0.48300001	5.33300018
          62	1	21	3	0.0	-4.91800022	0.094	3.68400002
          63	1	21	4	0.0	-5.41699982	-0.96600002	6.21400023
          64	1	22	1	0.0	-6.65899992	1.50300002	2.05200005
          65	1	22	3	0.0	-5.08099985	3.0539999	3.00099993
          66	1	22	4	0.0	-8.02099991	2.05699992	1.68400002
          67	1	23	1	0.0	-3.56399989	3.19700003	0.68300003
          68	1	23	3	0.0	-3.68000007	3.1559999	-1.71599996
          69	1	23	4	0.0	-2.29999995	2.34100008	0.91900003
          70	1	24	1	0.0	-4.02600002	5.89499998	-1.93499994
          71	1	24	3	0.0	-1.67999995	6.36299992	-1.727
          72	1	24	4	0.0	-4.89400005	7.13700008	-1.73899996
          73	1	25	1	0.0	-1.21800005	6.24100018	-4.454
          74	1	25	3	0.0	-1.847	8.53299999	-4.81899977
          75	1	25	5	0.0	-2.51699996	5.05649464	-4.4811398
          76	1	26	1	0.0	0.301	9.04100037	-6.49499989
          77	1	26	3	0.0	-1.12100005	10.19499969	-8.05099964
          78	1	26	4	0.0	1.75899994	9.17300034	-6.91900015
          79	1	27	1	0.0	-2.09699988	7.86199999	-9.18099976
          80	1	27	3	0.0	-4.30100012	8.77099991	-9.48900032
          81	1	27	4	0.0	-2.21000004	6.44199991	-9.73700047
          82	1	28	1	0.0	-4.8119998	8.9460001	-6.76999998
          83	1	28	3	0.0	-7.11000013	8.25399971	-6.71099997
          84	1	28	4	0.0	-5.15299988	10.3739996	-7.19399977
          85	1	29	1	0.0	-6.49599981	5.56899977	-7.00299978
          86	1	29	3	0.0	-5.046	4.82200003	-5.24100018
          87	1	29	4	0.0	-6.54699993	4.73899984	-8.28299999
          88	1	30	1	0.0	-6.99900007	3.27600002	-4.03299999
          89	1	30	3	0.0	-6.99800014	1.102	-5.0539999
          90	1	30	4	0.0	-8.38000011	3.23200011	-3.25600004
          91	1	31	1	0.0	-5.25400019	0.028	-3.19099998
          92	1	31	3	0.0	-5.54099989	0.25999999	-0.81800002
          93	1	31	4	0.0	-3.75	-0.207	-3.43300009
          94	1	32	1	0.0	-7.2750001	-1.89100003	-0.648
          95	1	32	3	0.0	-6.90500021	-1.43900001	1.67900002
          96	1	32	5	0.0	-6.39499998	-2.00672903	-0.34064982
          97	1	33	1	0.0	-4.35099983	-2.50699997	1.67999995
          98	1	33	3	0.0	-2.52699995	-2.18499994	0.153
          99	1	33	4	0.0	-4.81599998	-3.6170001	2.61999989
         100	1	34	1	0.0	-0.597	-2.8599999	2.01999998
         101	1	34	3	0.0	0.73500001	-3.71799994	0.22
         102	1	34	4	0.0	0.177	-3.02800012	3.3269999
         103	1	35	1	0.0	-0.86199999	-5.94799995	-0.155
         104	1	35	3	0.0	-0.243	-5.5539999	-2.44199991
         105	1	35	4	0.0	-1.75999999	-7.15700006	0.102
         106	1	36	1	0.0	-2.71199989	-4.50699997	-3.13100004
         107	1	36	3	0.0	-1.69200003	-2.99099994	-4.69000006
         108	1	36	4	0.0	-4.23099995	-4.53599977	-3.27399993
         109	1	37	1	0.0	-0.79799998	-1.26400006	-2.71499991
         110	1	37	3	0.0	1.04299998	-1.31500006	-4.25500011
         111	1	37	4	0.0	-0.66799998	-0.38699999	-1.46000004
         112	1	38	1	0.0	2.59899998	-2.92799997	-2.63100004
         113	1	38	3	0.0	3.80999994	-3.74000001	-4.53700018
         114	1	38	4	0.0	3.23000002	-3.5150001	-1.37399995
         115	1	39	1	0.0	1.65999997	-5.17700005	-5.52600002
         116	1	39	3	0.0	2.37800002	-4.375	-7.67199993
         117	1	39	4	0.0	0.44999999	-6.09700012	-5.63800001
         118	1	40	1	0.0	0.736	-2.14499998	-7.5999999
         119	1	40	3	0.0	2.29099989	-0.72500002	-8.76000023
         120	1	40	4	0.0	-0.52600002	-1.31799996	-7.37699986
         121	1	41	1	0.0	4.09600019	-0.676	-6.65700006
         122	1	41	3	0.0	5.90199995	-1.06400001	-8.19299984
         123	1	41	4	0.0	4.49399996	-0.273	-5.22100019
         124	1	42	1	0.0	6.30100012	-3.67400002	-7.35900021
         125	1	42	3	0.0	7.05900002	-4.29400015	-9.55099964
         126	1	42	4	0.0	6.46199989	-4.84700012	-6.37099981
         127	1	43	1	0.0	4.53000021	-4.14400005	-10.66899967
         128	1	43	3	0.0	5.67399979	-2.77200007	-12.27900028
         129	1	43	4	0.0	3.02600002	-4.421	-10.78899956
         130	1	44	1	0.0	4.8499999	-0.396	-11.11699963
         131	1	44	3	0.0	6.73899984	0.81599998	-11.96199989
         132	1	44	4	0.0	4.27799988	0.68000001	-10.19900036
         133	1	45	1	0.0	8.59700012	-0.91299999	-10.83899975
         134	1	45	3	0.0	10.2869997	0.75400001	-10.51599979
         135	1	45	4	0.0	9.01200008	-1.19400001	-12.26000023
         136	1	46	1	0.0	9.28899956	1.57099998	-8.0710001
         137	1	46	3	0.0	8.85000038	3.78699994	-7.26300001
         138	1	46	5	0.0	8.65200043	1.54104398	-6.69651164
         139	1	47	1	0.0	7.53700018	4.55000019	-9.57900047
         140	1	47	3	0.0	6.15700006	6.20599985	-8.51799965
         141	1	47	4	0.0	7.38199997	4.69099998	-11.14900017
         142	1	48	1	0.0	4.1789999	4.39300013	-7.83199978
         143	1	48	3	0.0	5.40600014	3.79999995	-5.85099983
         144	1	48	4	0.0	3.14299989	3.29099989	-8.11200047
         145	1	49	1	0.0	4.28599977	5.82000017	-4.32399988
         146	1	49	3	0.0	1.97000003	6.40199995	-4.0539999
         147	1	49	4	0.0	5.4289999	6.91900015	-4.32600021
         148	1	50	1	0.0	2.15300012	6.60500002	-1.29900002
         149	1	50	3	0.0	2.78699994	8.83500004	-0.671
         150	1	50	4	0.0	2.48300004	5.78299999	-0.044
         151	1	51	1	0.0	0.31799999	9.92000008	-1.30299997
         152	1	51	3	0.0	0.26300001	11.00300026	0.84100002
         153	1	51	4	0.0	-0.68699998	10.35200024	-2.36199999
         154	1	52	1	0.0	-1.49899995	9.16899967	1.93400002
         155	1	52	3	0.0	-2.6789999	7.12599993	1.47899997
         156	1	52	4	0.0	-2.59500003	10.20899963	2.2809999
         157	1	53	1	0.0	-2.5539999	6.25199986	4.10400009
         158	1	53	3	0.0	-4.54300022	7.50099993	3.59500003
         159	1	53	4	0.0	-2.15700006	5.93300009	5.56799984
         160	1	54	1	0.0	-6.23699999	5.36299992	4.07800007
         161	1	54	3	0.0	-5.85400009	5.23199987	1.70899999
         162	1	54	5	0.0	-4.78800011	4.95691823	4.60880908
         163	1	55	1	0.0	-8.51599979	5.63600016	1.06500006
         164	1	55	3	0.0	-8.70400047	8.03100014	1.13399994
         165	1	55	4	0.0	-9.93299961	5.05499983	1.08399999
         166	1	56	1	0.0	-8.63700008	8.30200005	-1.62300003
         167	1	56	3	0.0	-9.5170002	10.35700035	-0.76599997
         168	1	56	4	0.0	-8.65499973	8.05900002	-3.13199997

Bond Coeffs

           1	200.0	3.77
           2	200.0	2.41
           3	200.0	2.50
           4	200.0	1.54
           5	200.0	1.54
Bonds

           1	2	1	2
           2	4	1	3
           3	1	1	4
           4	3	2	4
           5	2	4	5
           6	4	4	6
           7	1	4	7
           8	3	5	7
           9	2	7	8
          10	4	7	9
          11	1	7	10
          12	3	8	10
          13	2	10	11
          14	4	10	12
          15	1	10	13
          16	3	11	13
          17	2	13	14
          18	4	13	15
          19	1	13	16
          20	3	14	16
          21	2	16	17
          22	4	16	18
          23	1	16	19
          24	3	17	19
          25	2	19	20
          26	4	19	21
          27	1	19	22
          28	3	20	22
          29	2	22	23
          30	4	22	24
          31	1	22	25
          32	3	23	25
          33	2	25	26
          34	4	25	27
          35	1	25	28
          36	3	26	28
          37	2	28	29
          38	4	28	30
          39	1	28	31
          40	3	29	31
          41	2	31	32
          42	4	31	33
          43	1	31	34
          44	3	32	34
          45	2	34	35
          46	4	34	36
          47	1	34	37
          48	3	35	37
          49	2	37	38
          50	4	37	39
          51	1	37	40
          52	3	38	40
          53	2	40	41
          54	4	40	42
          55	1	40	43
          56	3	41	43
          57	2	43	44
          58	4	43	45
          59	1	43	46
          60	3	44	46
          61	2	46	47
          62	4	46	48
          63	1	46	49
          64	3	47	49
          65	2	49	50
          66	4	49	51
          67	1	49	52
          68	3	50	52
          69	2	52	53
          70	4	52	54
          71	1	52	55
          72	3	53	55
          73	2	55	56
          74	4	55	57
          75	1	55	58
          76	3	56	58
          77	2	58	59
          78	4	58	60
          79	1	58	61
          80	3	59	61
          81	2	61	62
          82	4	61	63
          83	1	61	64
          84	3	62	64
          85	2	64	65
          86	4	64	66
          87	1	64	67
          88	3	65	67
          89	2	67	68
          90	4	67	69
          91	1	67	70
          92	3	68	70
          93	2	70	71
          94	4	70	72
          95	1	70	73
          96	3	71	73
          97	2	73	74
          98	5	73	75
          99	1	73	76
         100	3	74	76
         101	2	76	77
         102	4	76	78
         103	1	76	79
         104	3	77	79
         105	2	79	80
         106	4	79	81
         107	1	79	82
         108	3	80	82
         109	2	82	83
         110	4	82	84
         111	1	82	85
         112	3	83	85
         113	2	85	86
         114	4	85	87
         115	1	85	88
         116	3	86	88
         117	2	88	89
         118	4	88	90
         119	1	88	91
         120	3	89	91
         121	2	91	92
         122	4	91	93
         123	1	91	94
         124	3	92	94
         125	2	94	95
         126	5	94	96
         127	1	94	97
         128	3	95	97
         129	2	97	98
         130	4	97	99
         131	1	97	100
         132	3	98	100
         133	2	100	101
         134	4	100	102
         135	1	100	103
         136	3	101	103
         137	2	103	104
         138	4	103	105
         139	1	103	106
         140	3	104	106
         141	2	106	107
         142	4	106	108
         143	1	106	109
         144	3	107	109
         145	2	109	110
         146	4	109	111
         147	1	109	112
         148	3	110	112
         149	2	112	113
         150	4	112	114
         151	1	112	115
         152	3	113	115
         153	2	115	116
         154	4	115	117
         155	1	115	118
         156	3	116	118
         157	2	118	119
         158	4	118	120
         159	1	118	121
         160	3	119	121
         161	2	121	122
         162	4	121	123
         163	1	121	124
         164	3	122	124
         165	2	124	125
         166	4	124	126
         167	1	124	127
         168	3	125	127
         169	2	127	128
         170	4	127	129
         171	1	127	130
         172	3	128	130
         173	2	130	131
         174	4	130	132
         175	1	130	133
         176	3	131	133
         177	2	133	134
         178	4	133	135
         179	1	133	136
         180	3	134	136
         181	2	136	137
         182	5	136	138
         183	1	136	139
         184	3	137	139
         185	2	139	140
         186	4	139	141
         187	1	139	142
         188	3	140	142
         189	2	142	143
         190	4	142	144
         191	1	142	145
         192	3	143	145
         193	2	145	146
         194	4	145	147
         195	1	145	148
         196	3	146	148
         197	2	148	149
         198	4	148	150
         199	1	148	151
         200	3	149	151
         201	2	151	152
         202	4	151	153
         203	1	151	154
         204	3	152	154
         205	2	154	155
         206	4	154	156
         207	1	154	157
         208	3	155	157
         209	2	157	158
         210	4	157	159
         211	1	157	160
         212	3	158	160
         213	2	160	161
         214	5	160	162
         215	1	160	163
         216	3	161	163
         217	2	163	164
         218	4	163	165
         219	1	163	166
         220	3	164	166
         221	2	166	167
         222	4	166	168

