ITEM: TIMESTEP
0
ITEM: NUMBER OF ATOMS
168
ITEM: BOX BOUNDS ss ss ss
-10.604 12.386
-16.071 15.053
-12.319 7.424
ITEM: ATOMS id type xs ys zs
1 1 0.975642 0.962955 0.997974
2 3 0.904959 0.906182 0.993719
3 4 0.99826 0.996144 0.946969
4 1 0.817225 0.958938 0.945702
5 3 0.798173 0.950328 0.826774
6 4 0.778469 0.998715 0.944132
7 1 0.794606 0.861522 0.833865
8 3 0.726229 0.829649 0.910956
9 4 0.844106 0.83026 0.819278
10 1 0.669769 0.783865 0.810313
11 3 0.694867 0.753277 0.702426
12 4 0.607829 0.802692 0.806007
13 1 0.695607 0.66974 0.750747
14 3 0.726925 0.625273 0.843286
15 4 0.754023 0.672889 0.714684
16 1 0.665637 0.55417 0.798511
17 3 0.733623 0.543953 0.707491
18 4 0.606351 0.531198 0.798815
19 1 0.78756 0.474489 0.768779
20 3 0.716442 0.422825 0.732766
21 4 0.828621 0.458521 0.824039
22 1 0.76816 0.410487 0.607608
23 3 0.811962 0.373185 0.514056
24 4 0.741714 0.441524 0.556298
25 1 0.909134 0.348927 0.587601
26 3 0.92388 0.279045 0.539229
27 4 0.959939 0.348863 0.637239
28 1 0.829404 0.243285 0.60548
29 3 0.739104 0.207718 0.580155
30 4 0.818356 0.23265 0.680292
31 1 0.719356 0.255815 0.464316
32 3 0.782427 0.260024 0.367877
33 4 0.685385 0.297905 0.475156
34 1 0.633058 0.226738 0.368688
35 3 0.662288 0.156439 0.40546
36 4 0.606786 0.237727 0.300005
37 1 0.559765 0.141306 0.475156
38 3 0.509047 0.122221 0.37355
39 4 0.529187 0.15133 0.542116
40 1 0.468682 0.0433106 0.420149
41 3 0.364724 0.036692 0.4202
42 4 0.502218 0.00128518 0.425923
43 1 0.353067 0.064741 0.552601
44 3 0.402566 0.115024 0.624778
45 4 0.340757 0.0213983 0.585828
46 1 0.301392 0.156985 0.662311
47 3 0.206742 0.141081 0.707289
48 4 0.286429 0.196601 0.620169
49 1 0.234972 0.167973 0.836854
50 3 0.204437 0.236763 0.794459
51 4 0.267638 0.178705 0.905435
52 1 0.0872554 0.219252 0.81168
53 3 0.0289256 0.278178 0.849668
54 4 0.0377991 0.188568 0.791926
55 1 0.108743 0.304331 0.945956
56 3 0.131318 0.338742 0.840247
57 4 0.161157 0.304845 0.993821
58 1 0.0660287 0.411226 0.869068
59 3 0.0821227 0.461991 0.958973
60 4 0.00173989 0.419258 0.851542
61 1 0.175294 0.500835 0.894089
62 3 0.247325 0.519374 0.810566
63 4 0.22562 0.485317 0.938712
64 1 0.171596 0.564645 0.727904
65 3 0.240235 0.614478 0.775971
66 4 0.112353 0.582444 0.709264
67 1 0.30622 0.619072 0.658563
68 3 0.301174 0.617755 0.537051
69 4 0.361201 0.591569 0.670516
70 1 0.286124 0.705758 0.525959
71 3 0.388169 0.720794 0.536494
72 4 0.248369 0.745663 0.535886
73 1 0.408264 0.716874 0.398369
74 3 0.380905 0.790515 0.379882
75 5 0.351762 0.678817 0.396994
76 1 0.474337 0.806837 0.294991
77 3 0.412484 0.843915 0.216178
78 4 0.537756 0.811078 0.273515
79 1 0.37003 0.768956 0.158942
80 3 0.274163 0.798162 0.143342
81 4 0.365115 0.723332 0.130781
82 1 0.251936 0.803785 0.281062
83 3 0.151979 0.781551 0.28405
84 4 0.237103 0.849666 0.259586
85 1 0.178686 0.695283 0.26926
86 3 0.241757 0.671283 0.358507
87 4 0.176468 0.668616 0.204427
88 1 0.156807 0.62161 0.419693
89 3 0.156851 0.551761 0.367979
90 4 0.0967377 0.620197 0.459049
91 1 0.23271 0.517254 0.462341
92 3 0.220226 0.524708 0.582536
93 4 0.29813 0.509703 0.450084
94 1 0.144802 0.455597 0.591146
95 3 0.160896 0.47012 0.709011
96 5 0.18308 0.451879 0.606714
97 1 0.271988 0.435805 0.709061
98 3 0.351327 0.446151 0.631718
99 4 0.251762 0.400141 0.756673
100 1 0.435276 0.424463 0.726283
101 3 0.493214 0.396896 0.635111
102 4 0.468943 0.419066 0.792483
103 1 0.423749 0.325247 0.616117
104 3 0.450674 0.337906 0.500279
105 4 0.384689 0.286403 0.629134
106 1 0.34328 0.371546 0.46538
107 3 0.387647 0.420254 0.386415
108 4 0.277207 0.370614 0.458137
109 1 0.426533 0.475742 0.486451
110 3 0.506612 0.474104 0.408449
111 4 0.432188 0.50392 0.550018
112 1 0.574293 0.422279 0.490706
113 3 0.626968 0.396189 0.394165
114 4 0.60174 0.403419 0.554374
115 1 0.533449 0.350019 0.344071
116 3 0.56468 0.375787 0.235375
117 4 0.480818 0.32046 0.338398
118 1 0.493258 0.447436 0.239021
119 3 0.560896 0.49306 0.180266
120 4 0.438365 0.474007 0.250317
121 1 0.639408 0.494634 0.286785
122 3 0.717964 0.482168 0.208985
123 4 0.65672 0.507583 0.35952
124 1 0.73532 0.39831 0.251228
125 3 0.768291 0.37839 0.140202
126 4 0.742323 0.360622 0.301271
127 1 0.658286 0.383209 0.083574
128 3 0.708047 0.427291 0.00202603
129 4 0.592866 0.374309 0.0774959
130 1 0.672205 0.503631 0.0608824
131 3 0.754371 0.542572 0.0180824
132 4 0.647325 0.538202 0.10738
133 1 0.835189 0.48702 0.0749633
134 3 0.908699 0.54058 0.0913235
135 4 0.853241 0.477991 0.0029884
136 1 0.865289 0.566829 0.215165
137 3 0.846194 0.638029 0.256091
138 5 0.837582 0.565867 0.284784
139 1 0.789082 0.662543 0.138783
140 3 0.729056 0.71575 0.192524
141 4 0.78234 0.667074 0.0592615
142 1 0.643019 0.657499 0.22727
143 3 0.69639 0.638446 0.32761
144 4 0.597956 0.622092 0.213088
145 1 0.647673 0.703348 0.404954
146 3 0.546933 0.722047 0.418629
147 4 0.69739 0.738658 0.404852
148 1 0.554893 0.72857 0.558173
149 3 0.582471 0.800218 0.589981
150 4 0.569248 0.702159 0.621739
151 1 0.475076 0.835079 0.55797
152 3 0.472684 0.869875 0.666565
153 4 0.431361 0.848959 0.504331
154 1 0.396042 0.81095 0.721927
155 3 0.344715 0.745309 0.698881
156 4 0.348369 0.844364 0.739503
157 1 0.350152 0.717228 0.831839
158 3 0.263636 0.757358 0.806058
159 4 0.367421 0.706979 0.905992
160 1 0.189952 0.688665 0.830522
161 3 0.206612 0.684456 0.71053
162 5 0.25298 0.675617 0.857408
163 1 0.0908221 0.697436 0.677911
164 3 0.0826446 0.774386 0.681406
165 4 0.0291866 0.678769 0.678874
166 1 0.0855589 0.783093 0.541762
167 3 0.0472814 0.84912 0.585169
168 4 0.084776 0.775286 0.465329
