LAMMPS protain data file

         159  atoms
         210  bonds
           0  angles
           0  dihedrals
           0  impropers

           5  atom types
           5  bond types
           0  angle types
           0  dihedral types
           0  improper types

-200.0	200.0	xlo xhi
-200.0	200.0	ylo yhi
-200.0	200.0	zlo zhi

Masses

           1	27.0
           2	14.0
           3	28.0
           4	60.0
           5	60.0

Atoms

           1	1	1	1	0.0	-3.42000008	16.14100075	1.80599999
           2	1	1	3	0.0	-3.18000007	14.14900017	0.48500001
           3	1	1	4	0.0	-4.66499996	16.96500015	1.47399998
           4	1	2	1	0.0	-4.9369998	12.68200016	2.06299996
           5	1	2	3	0.0	-7.25099993	13.27799988	2.29999995
           6	1	2	4	0.0	-4.63000011	11.83600044	3.29900002
           7	1	3	1	0.0	-8.08699989	11.52600002	0.31
           8	1	3	3	0.0	-7.53700018	9.4989996	-0.852
           9	1	3	4	0.0	-8.27299976	12.43099976	-0.91000003
          10	1	4	1	0.0	-9.80799961	8.13300037	0.097
          11	1	4	3	0.0	-11.45300007	8.49699974	-1.61300004
          12	1	4	4	0.0	-10.82199955	7.73999977	1.15900004
          13	1	5	1	0.0	-9.96500015	7.19199991	-3.56599998
          14	1	5	3	0.0	-7.90600014	5.99900007	-3.88800001
          15	1	5	5	0.0	-9.5710001	7.19771183	-4.22359897
          16	1	6	1	0.0	-8.90600014	4.49100018	-5.99599981
          17	1	6	3	0.0	-10.53499985	2.96600008	-6.88500023
          18	1	6	4	0.0	-8.38599968	3.37700009	-5.08500004
          19	1	7	1	0.0	-10.58600044	4.21799994	-9.40499973
          20	1	7	3	0.0	-8.99400043	2.43400002	-9.63500023
          21	1	7	4	0.0	-10.59399986	5.42000008	-10.33500004
          22	1	8	1	0.0	-10.29800034	1.31799996	-11.82199955
          23	1	8	3	0.0	-9.20199966	0.921	-13.92099953
          24	1	8	4	0.0	-11.50500011	0.51999998	-12.31599998
          25	1	9	1	0.0	-8.01900005	3.43499994	-13.97900009
          26	1	9	3	0.0	-5.82700014	2.85500002	-14.76799965
          27	1	9	4	0.0	-7.96299982	4.96500015	-13.95699978
          28	1	10	1	0.0	-5.046	1.77100003	-12.33100033
          29	1	10	3	0.0	-4.92399979	-0.185	-13.71800041
          30	1	10	4	0.0	-4.78999996	2.02999997	-10.84500027
          31	1	11	1	0.0	-5.2579999	-1.93200004	-11.58100033
          32	1	11	3	0.0	-3.63000011	-2.80699992	-10.04800034
          33	1	11	4	0.0	-4.30800009	-2.44199991	-12.66699982
          34	1	12	1	0.0	-5.50400019	-3.2650001	-8.04699993
          35	1	12	3	0.0	-3.37299991	-3.37899995	-6.94399977
          36	1	12	5	0.0	-5.78100014	-3.96372464	-6.66208844
          37	1	13	1	0.0	-2.99699998	-0.625	-7.0079999
          38	1	13	3	0.0	-1.24600005	-1.32299995	-5.52099991
          39	1	13	4	0.0	-3.49799991	0.773	-6.63700008
          40	1	14	1	0.0	-3.00300002	-2.54500008	-3.74699998
          41	1	14	3	0.0	-4.14799976	-4.56400013	-4.36399984
          42	1	14	4	0.0	-3.87400007	-2.10700011	-2.56900001
          43	1	15	1	0.0	-1.90999997	-6.16400003	-3.96700001
          44	1	15	3	0.0	-0.81400001	-6.13999987	-1.83099997
          45	1	15	4	0.0	-1.12	-6.50099993	-5.2329998
          46	1	16	1	0.0	-1.02999997	-8.89000034	-1.49399996
          47	1	16	3	0.0	-2.45700002	-9.77700043	0.221
          48	1	16	4	0.0	0.31200001	-8.34799957	-0.99800003
          49	1	17	1	0.0	-3.35700011	-7.26999998	1.01199996
          50	1	17	3	0.0	-2.52800012	-5.7329998	2.66000009
          51	1	17	5	0.0	-2.40400004	-7.42396571	1.58925775
          52	1	18	1	0.0	-3.54500008	-3.50300002	1.34599996
          53	1	18	3	0.0	-5.36000013	-3.00399995	-0.145
          54	1	18	5	0.0	-3.66899991	-2.49976717	1.9912501
          55	1	19	1	0.0	-6.05000019	-0.67000002	1.20000005
          56	1	19	3	0.0	-4.3499999	0.47799999	-0.045
          57	1	19	4	0.0	-6.61199999	0.0	2.45499992
          58	1	20	1	0.0	-6.18200016	1.98800004	-1.49199998
          59	1	20	3	0.0	-7.67399979	3.52099991	-0.405
          60	1	20	4	0.0	-6.84499979	1.65999997	-2.83200002
          61	1	21	1	0.0	-5.97300005	5.69199991	-0.74599999
          62	1	21	3	0.0	-4.2670002	6.52400017	-2.21499991
          63	1	21	4	0.0	-5.36399984	5.90500021	0.64099997
          64	1	22	1	0.0	-5.71500015	8.79800034	-2.89299989
          65	1	22	3	0.0	-5.27799988	10.14999962	-0.95700002
          66	1	22	4	0.0	-6.9000001	9.35599995	-3.68400002
          67	1	23	1	0.0	-3.17499995	11.50899982	-2.16499996
          68	1	23	3	0.0	-3.94000006	12.88899994	-3.97600007
          69	1	23	4	0.0	-1.69200003	11.1420002	-2.21099997
          70	1	24	1	0.0	-3.523	15.25500011	-2.57800007
          71	1	24	3	0.0	-2.20099998	17.12700081	-3.29099989
          72	1	24	4	0.0	-4.46600008	16.01600075	-1.64100003
          73	1	25	1	0.0	0.18799999	15.98400021	-2.44899988
          74	1	25	3	0.0	1.24300003	17.2140007	-4.22200012
          75	1	25	4	0.0	1.26499999	15.07499981	-1.852
          76	1	26	1	0.0	0.121	15.63799953	-6.21700001
          77	1	26	3	0.0	-0.88599998	14.60200024	-8.13399982
          78	1	26	4	0.0	1.49899995	15.11299992	-6.62300014
          79	1	27	1	0.0	-3.34100008	14.26099968	-6.87699986
          80	1	27	3	0.0	-3.59200001	12.33399963	-8.28899956
          81	1	27	4	0.0	-3.80800009	15.04899979	-8.10400009
          82	1	28	1	0.0	-1.64999998	10.8739996	-6.93599987
          83	1	28	3	0.0	-2.8210001	10.25500011	-4.93400002
          84	1	28	4	0.0	-0.132	10.72799969	-6.82700014
          85	1	29	1	0.0	-3.01900005	7.58199978	-5.66800022
          86	1	29	3	0.0	-1.08000004	6.17600012	-5.84499979
          87	1	29	4	0.0	-3.94199991	6.83699989	-6.63399982
          88	1	30	1	0.0	-1.21300006	5.3579998	-3.19300008
          89	1	30	3	0.0	-3.18300009	4.03499985	-2.82200003
          90	1	30	4	0.0	-0.421	6.14400005	-2.14700007
          91	1	31	1	0.0	-1.84000003	2.16000009	-1.26900005
          92	1	31	3	0.0	0.101	2.2190001	0.141
          93	1	31	4	0.0	-1.86899996	0.97100002	-2.23000002
          94	1	32	1	0.0	-1.12100005	0.77899998	2.18099999
          95	1	32	3	0.0	-2.32999992	-1.29499996	2.171
          96	1	32	4	0.0	-1.80900002	1.47800004	3.35400009
          97	1	33	1	0.0	-0.139	-2.77800012	3.0250001
          98	1	33	3	0.0	-0.51999998	-2.26099992	5.33900023
          99	1	33	4	0.0	0.96499997	-3.46799994	2.22099996
         100	1	34	1	0.0	0.97500002	-4.42199993	6.24700022
         101	1	34	3	0.0	3.13400006	-5.07499981	5.42600012
         102	1	34	4	0.0	-0.098	-5.40299988	6.72399998
         103	1	35	1	0.0	4.05499983	-5.82499981	7.93900013
         104	1	35	3	0.0	3.72600007	-7.61800003	6.37799978
         105	1	35	4	0.0	4.06899977	-6.4829998	9.31999969
         106	1	36	1	0.0	6.27199984	-7.36800003	5.28700018
         107	1	36	3	0.0	6.01999998	-7.52199984	2.90400004
         108	1	36	5	0.0	5.72300005	-7.97513507	4.78163795
         109	1	37	1	0.0	4.60200024	-5.13999987	2.72300005
         110	1	37	3	0.0	3.52999997	-3.36999989	3.94099998
         111	1	37	4	0.0	3.36400008	-5.96000004	2.35100007
         112	1	38	1	0.0	4.25699997	-1.42299998	2.09599996
         113	1	38	3	0.0	5.22800016	-1.29999995	-0.098
         114	1	38	4	0.0	4.78200006	-0.81400001	3.398
         115	1	39	1	0.0	5.40999985	1.47300005	-0.052
         116	1	39	3	0.0	3.37100005	2.73099995	-0.20900001
         117	1	39	5	0.0	4.8829999	1.73990015	-0.58332758
         118	1	40	1	0.0	3.36999989	2.71700001	-2.99000001
         119	1	40	3	0.0	1.028	2.3440001	-3.3670001
         120	1	40	4	0.0	3.8440001	2.77399993	-4.44399977
         121	1	41	1	0.0	1.09000003	-0.226	-2.31299996
         122	1	41	3	0.0	1.17200005	-1.34599996	-0.191
         123	1	41	4	0.0	0.68099999	-0.76499999	-3.68499994
         124	1	42	1	0.0	2.38000011	-3.61999989	-1.23899996
         125	1	42	3	0.0	3.93000007	-5.40100002	-1.67299998
         126	1	42	4	0.0	1.22500002	-4.61899996	-1.14199996
         127	1	43	1	0.0	5.47100019	-3.87400007	-3.41000009
         128	1	43	3	0.0	7.23199987	-5.204	-2.46499991
         129	1	43	4	0.0	5.90999985	-2.85299993	-4.45900011
         130	1	44	1	0.0	7.84399986	-3.32299995	-0.514
         131	1	44	3	0.0	7.19700003	-4.20100021	1.62399995
         132	1	44	4	0.0	8.01399994	-1.96200001	0.168
         133	1	45	1	0.0	7.27199984	-6.84000015	0.75599998
         134	1	45	3	0.0	8.96700001	-8.10400009	1.89600003
         135	1	45	4	0.0	7.17700005	-8.09899998	-0.106
         136	1	46	1	0.0	9.5539999	-6.04699993	3.67000008
         137	1	46	3	0.0	7.73999977	-5.2579999	5.02699995
         138	1	46	4	0.0	10.72299957	-5.10699987	3.36500001
         139	1	47	1	0.0	9.26299953	-5.21000004	7.34899998
         140	1	47	3	0.0	8.59000015	-2.98399997	6.75699997
         141	1	47	4	0.0	10.05500031	-5.93300009	8.44200039
         142	1	48	1	0.0	10.32900047	-1.78799999	8.56400013
         143	1	48	3	0.0	8.15600014	-0.76800001	8.62899971
         144	1	48	4	0.0	10.52700043	-1.051	7.23699999
         145	1	49	1	0.0	8.05200005	-0.76200002	11.40699959
         146	1	49	3	0.0	8.1960001	1.60500002	11.02299976
         147	1	49	4	0.0	8.46500015	-0.63	12.8739996
         148	1	50	1	0.0	5.94700003	1.65499997	9.39299965
         149	1	50	3	0.0	3.56299996	1.92400002	9.47999954
         150	1	50	4	0.0	5.78700018	1.43200004	7.88700008
         151	1	51	1	0.0	3.57500005	2.71399999	12.14599991
         152	1	51	3	0.0	5.07399988	3.22099996	13.94900036
         153	1	51	4	0.0	2.74799991	1.472	12.48700047
         154	1	52	1	0.0	3.38199997	5.1329999	15.05000019
         155	1	52	3	0.0	1.07299995	4.77199984	15.60700035
         156	1	52	4	0.0	3.69000006	6.58599997	14.68099976
         157	1	53	1	0.0	1.523	4.96500015	18.34399986
         158	1	53	3	0.0	-0.025	3.28200006	19.07299995
         159	1	53	4	0.0	0.46000001	6.05700016	18.21100044

Bond Coeffs

           1	200.0	3.77
           2	200.0	2.41
           3	200.0	2.50
           4	200.0	1.54
           5	200.0	1.54
Bonds

           1	2	1	2
           2	4	1	3
           3	1	1	4
           4	3	2	4
           5	2	4	5
           6	4	4	6
           7	1	4	7
           8	3	5	7
           9	2	7	8
          10	4	7	9
          11	1	7	10
          12	3	8	10
          13	2	10	11
          14	4	10	12
          15	1	10	13
          16	3	11	13
          17	2	13	14
          18	5	13	15
          19	1	13	16
          20	3	14	16
          21	2	16	17
          22	4	16	18
          23	1	16	19
          24	3	17	19
          25	2	19	20
          26	4	19	21
          27	1	19	22
          28	3	20	22
          29	2	22	23
          30	4	22	24
          31	1	22	25
          32	3	23	25
          33	2	25	26
          34	4	25	27
          35	1	25	28
          36	3	26	28
          37	2	28	29
          38	4	28	30
          39	1	28	31
          40	3	29	31
          41	2	31	32
          42	4	31	33
          43	1	31	34
          44	3	32	34
          45	2	34	35
          46	5	34	36
          47	1	34	37
          48	3	35	37
          49	2	37	38
          50	4	37	39
          51	1	37	40
          52	3	38	40
          53	2	40	41
          54	4	40	42
          55	1	40	43
          56	3	41	43
          57	2	43	44
          58	4	43	45
          59	1	43	46
          60	3	44	46
          61	2	46	47
          62	4	46	48
          63	1	46	49
          64	3	47	49
          65	2	49	50
          66	5	49	51
          67	1	49	52
          68	3	50	52
          69	2	52	53
          70	5	52	54
          71	1	52	55
          72	3	53	55
          73	2	55	56
          74	4	55	57
          75	1	55	58
          76	3	56	58
          77	2	58	59
          78	4	58	60
          79	1	58	61
          80	3	59	61
          81	2	61	62
          82	4	61	63
          83	1	61	64
          84	3	62	64
          85	2	64	65
          86	4	64	66
          87	1	64	67
          88	3	65	67
          89	2	67	68
          90	4	67	69
          91	1	67	70
          92	3	68	70
          93	2	70	71
          94	4	70	72
          95	1	70	73
          96	3	71	73
          97	2	73	74
          98	4	73	75
          99	1	73	76
         100	3	74	76
         101	2	76	77
         102	4	76	78
         103	1	76	79
         104	3	77	79
         105	2	79	80
         106	4	79	81
         107	1	79	82
         108	3	80	82
         109	2	82	83
         110	4	82	84
         111	1	82	85
         112	3	83	85
         113	2	85	86
         114	4	85	87
         115	1	85	88
         116	3	86	88
         117	2	88	89
         118	4	88	90
         119	1	88	91
         120	3	89	91
         121	2	91	92
         122	4	91	93
         123	1	91	94
         124	3	92	94
         125	2	94	95
         126	4	94	96
         127	1	94	97
         128	3	95	97
         129	2	97	98
         130	4	97	99
         131	1	97	100
         132	3	98	100
         133	2	100	101
         134	4	100	102
         135	1	100	103
         136	3	101	103
         137	2	103	104
         138	4	103	105
         139	1	103	106
         140	3	104	106
         141	2	106	107
         142	5	106	108
         143	1	106	109
         144	3	107	109
         145	2	109	110
         146	4	109	111
         147	1	109	112
         148	3	110	112
         149	2	112	113
         150	4	112	114
         151	1	112	115
         152	3	113	115
         153	2	115	116
         154	5	115	117
         155	1	115	118
         156	3	116	118
         157	2	118	119
         158	4	118	120
         159	1	118	121
         160	3	119	121
         161	2	121	122
         162	4	121	123
         163	1	121	124
         164	3	122	124
         165	2	124	125
         166	4	124	126
         167	1	124	127
         168	3	125	127
         169	2	127	128
         170	4	127	129
         171	1	127	130
         172	3	128	130
         173	2	130	131
         174	4	130	132
         175	1	130	133
         176	3	131	133
         177	2	133	134
         178	4	133	135
         179	1	133	136
         180	3	134	136
         181	2	136	137
         182	4	136	138
         183	1	136	139
         184	3	137	139
         185	2	139	140
         186	4	139	141
         187	1	139	142
         188	3	140	142
         189	2	142	143
         190	4	142	144
         191	1	142	145
         192	3	143	145
         193	2	145	146
         194	4	145	147
         195	1	145	148
         196	3	146	148
         197	2	148	149
         198	4	148	150
         199	1	148	151
         200	3	149	151
         201	2	151	152
         202	4	151	153
         203	1	151	154
         204	3	152	154
         205	2	154	155
         206	4	154	156
         207	1	154	157
         208	3	155	157
         209	2	157	158
         210	4	157	159

