ITEM: TIMESTEP
0
ITEM: NUMBER OF ATOMS
159
ITEM: BOX BOUNDS ss ss ss
-11.545 10.763
-9.817 17.254
-14.808 19.113
ITEM: ATOMS id type xs ys zs
1 1 0.364219 0.958886 0.489785
2 3 0.374978 0.885302 0.450842
3 4 0.30841 0.989324 0.479998
4 1 0.296217 0.831111 0.497362
5 3 0.192487 0.853127 0.504348
6 4 0.309978 0.79986 0.533799
7 1 0.155012 0.788408 0.445683
8 3 0.179666 0.713531 0.411427
9 4 0.146674 0.821839 0.409717
10 1 0.0778645 0.663071 0.439403
11 3 0.00412408 0.676517 0.388992
12 4 0.0324099 0.648554 0.470711
13 1 0.0708266 0.628311 0.331417
14 3 0.163125 0.584241 0.321924
15 5 0.0884884 0.628522 0.312031
16 1 0.118298 0.528536 0.25978
17 3 0.0452752 0.472203 0.233572
18 4 0.141608 0.487385 0.286637
19 1 0.042989 0.518451 0.159282
20 3 0.114354 0.452551 0.152501
21 4 0.0426305 0.562853 0.131865
22 1 0.0558992 0.411326 0.0880281
23 3 0.10503 0.396661 0.026149
24 4 0.00179308 0.381848 0.0734648
25 1 0.15806 0.489528 0.0244391
26 3 0.256321 0.468102 0.00117921
27 4 0.16057 0.546046 0.0250877
28 1 0.29133 0.42806 0.0730226
29 3 0.296799 0.355805 0.0321335
30 4 0.302806 0.437627 0.11683
31 1 0.281827 0.291271 0.0951328
32 3 0.354805 0.258949 0.140326
33 4 0.324413 0.272432 0.0631172
34 1 0.2708 0.24203 0.199316
35 3 0.366326 0.237819 0.231833
36 5 0.258383 0.216219 0.240144
37 1 0.383181 0.339552 0.229946
38 3 0.461673 0.313768 0.273783
39 4 0.360723 0.391194 0.240883
40 1 0.382912 0.268627 0.326081
41 3 0.331585 0.194045 0.307892
42 4 0.343868 0.284807 0.360809
43 1 0.431908 0.134941 0.319596
44 3 0.481038 0.135828 0.382565
45 4 0.467321 0.122493 0.282274
46 1 0.471356 0.0342433 0.3925
47 3 0.407387 0.0014776 0.443059
48 4 0.531513 0.0542647 0.407122
49 1 0.367043 0.0940859 0.466378
50 3 0.404205 0.150863 0.514961
51 5 0.409763 0.0883985 0.483395
52 1 0.358616 0.233239 0.476224
53 3 0.277255 0.251672 0.432269
54 5 0.353057 0.270298 0.495246
55 1 0.246324 0.337889 0.47192
56 3 0.32253 0.380296 0.435217
57 4 0.221131 0.362639 0.508918
58 1 0.240407 0.436076 0.392559
59 3 0.173525 0.492704 0.424604
60 4 0.210687 0.423959 0.353056
61 1 0.249776 0.572901 0.414551
62 3 0.326251 0.603635 0.371245
63 4 0.277076 0.580769 0.455441
64 1 0.261341 0.687636 0.351257
65 3 0.280931 0.737579 0.408331
66 4 0.208221 0.708249 0.327938
67 1 0.375202 0.78778 0.372719
68 3 0.340909 0.838757 0.31933
69 4 0.44168 0.774223 0.371363
70 1 0.359602 0.926157 0.360544
71 3 0.418863 0.995309 0.339524
72 4 0.31733 0.954268 0.388167
73 1 0.525955 0.953086 0.364347
74 3 0.573247 0.998522 0.312078
75 4 0.574233 0.919508 0.381946
76 1 0.522951 0.940305 0.253265
77 3 0.477811 0.902035 0.196751
78 4 0.584723 0.920912 0.241296
79 1 0.36776 0.889439 0.233808
80 3 0.356509 0.818256 0.192182
81 4 0.346826 0.918547 0.197636
82 1 0.443563 0.764323 0.232069
83 3 0.39107 0.741458 0.291088
84 4 0.51161 0.75893 0.235282
85 1 0.382195 0.642717 0.26945
86 3 0.469114 0.59078 0.264232
87 4 0.340819 0.615197 0.240972
88 1 0.463152 0.560563 0.342413
89 3 0.374843 0.511691 0.35335
90 4 0.498655 0.589598 0.37325
91 1 0.435046 0.442429 0.399133
92 3 0.522055 0.444609 0.4407
93 4 0.433746 0.398508 0.370803
94 1 0.467276 0.391415 0.50084
95 3 0.413081 0.314802 0.500545
96 4 0.436435 0.417236 0.535421
97 1 0.511296 0.26002 0.525722
98 3 0.494217 0.279118 0.593939
99 4 0.560785 0.234531 0.502019
100 1 0.561234 0.199291 0.620707
101 3 0.658015 0.175169 0.596504
102 4 0.513134 0.163053 0.634769
103 1 0.699301 0.147464 0.670588
104 3 0.684553 0.0812308 0.624569
105 4 0.699928 0.123158 0.7113
106 1 0.798682 0.0904658 0.592406
107 3 0.787386 0.0847771 0.522154
108 5 0.774072 0.0680383 0.577508
109 1 0.723821 0.172768 0.516818
110 3 0.675767 0.238152 0.552725
111 4 0.668325 0.142477 0.505852
112 1 0.708356 0.310074 0.498334
113 3 0.751883 0.314617 0.433655
114 4 0.73189 0.33257 0.536718
115 1 0.760041 0.417051 0.435011
116 3 0.668639 0.463522 0.430382
117 5 0.736417 0.426911 0.419347
118 1 0.668594 0.463005 0.348398
119 3 0.563609 0.449226 0.337284
120 4 0.689842 0.46511 0.305533
121 1 0.566389 0.354291 0.368356
122 3 0.570065 0.312918 0.430913
123 4 0.548055 0.33438 0.327909
124 1 0.624216 0.228917 0.400018
125 3 0.693697 0.163127 0.387223
126 4 0.57244 0.192014 0.402877
127 1 0.762776 0.219534 0.336016
128 3 0.841716 0.170404 0.363875
129 4 0.782455 0.257249 0.305091
130 1 0.86915 0.239888 0.421391
131 3 0.840147 0.207454 0.48442
132 4 0.876771 0.290163 0.441496
133 1 0.843509 0.10997 0.458831
134 3 0.919491 0.0632781 0.492438
135 4 0.839251 0.0634628 0.433419
136 1 0.945804 0.139263 0.544736
137 3 0.864488 0.168409 0.584741
138 4 0.998207 0.173987 0.535745
139 1 0.93276 0.170182 0.653194
140 3 0.902591 0.25241 0.635742
141 4 0.968263 0.143475 0.685416
142 1 0.980545 0.29659 0.689013
143 3 0.883136 0.334269 0.690929
144 4 0.989421 0.323815 0.649892
145 1 0.878474 0.334491 0.772825
146 3 0.884929 0.421928 0.761505
147 4 0.896988 0.339367 0.816073
148 1 0.784113 0.423775 0.713452
149 3 0.677246 0.433711 0.716017
150 4 0.776941 0.415537 0.669055
151 1 0.677784 0.462894 0.794611
152 3 0.744979 0.481622 0.847764
153 4 0.640712 0.417015 0.804664
154 1 0.669132 0.552251 0.880222
155 3 0.565627 0.538916 0.896642
156 4 0.682939 0.605925 0.869343
157 1 0.585799 0.546046 0.97733
158 3 0.516407 0.483876 0.998821
159 4 0.538148 0.586384 0.973409
ITEM: TIMESTEP
1000
ITEM: NUMBER OF ATOMS
159
ITEM: BOX BOUNDS ss ss ss
-11.545 10.763
-9.817 17.254
-14.808 19.113
ITEM: ATOMS id type xs ys zs
1 1 0.312004 0.95744 0.501948
2 3 0.32287 0.890275 0.455452
3 4 0.255847 0.986131 0.491153
4 1 0.291394 0.82363 0.50124
5 3 0.186475 0.835133 0.511869
6 4 0.308345 0.797274 0.54015
7 1 0.145593 0.793834 0.449161
8 3 0.151889 0.71608 0.416508
9 4 0.135166 0.829766 0.416758
10 1 0.0641551 0.671348 0.446279
11 3 -0.000379699 0.693999 0.393805
12 4 0.025113 0.655157 0.481337
13 1 0.0212434 0.621895 0.34925
14 3 0.0917806 0.651148 0.301136
15 5 -0.0417338 0.645345 0.348484
16 1 0.107678 0.57406 0.261877
17 3 0.046129 0.509828 0.235659
18 4 0.167469 0.544706 0.269181
19 1 0.034187 0.533919 0.166231
20 3 0.100994 0.473266 0.144962
21 4 0.0297534 0.57647 0.132371
22 1 0.0285076 0.418808 0.104401
23 3 0.0908774 0.406562 0.0475306
24 4 -0.02773 0.396333 0.088025
25 1 0.124686 0.496866 0.0367234
26 3 0.227458 0.474213 0.0216245
27 4 0.12797 0.553088 0.0356577
28 1 0.250375 0.423878 0.0831347
29 3 0.24867 0.345114 0.0478319
30 4 0.266702 0.433721 0.126134
31 1 0.220122 0.288979 0.10391
32 3 0.272178 0.224704 0.141199
33 4 0.260309 0.269484 0.0717925
34 1 0.23336 0.242622 0.208501
35 3 0.335354 0.244906 0.234872
36 5 0.18115 0.266 0.230916
37 1 0.35554 0.333459 0.240409
38 3 0.418873 0.318244 0.295283
39 4 0.342569 0.389577 0.241998
40 1 0.344093 0.26531 0.33611
41 3 0.298207 0.184912 0.326572
42 4 0.296058 0.279043 0.366048
43 1 0.386 0.128749 0.326187
44 3 0.451572 0.119949 0.3837
45 4 0.42426 0.115761 0.288207
46 1 0.430518 0.0335907 0.400488
47 3 0.40983 0.0318296 0.470374
48 4 0.498239 0.041829 0.405475
49 1 0.328965 0.0971189 0.471833
50 3 0.400097 0.160175 0.488439
51 5 0.26638 0.0970642 0.454211
52 1 0.333016 0.235859 0.484669
53 3 0.249171 0.26497 0.447602
54 5 0.296295 0.25009 0.447453
55 1 0.237346 0.349445 0.482515
56 3 0.303759 0.40351 0.449177
57 4 0.216339 0.377027 0.520491
58 1 0.238074 0.441249 0.399683
59 3 0.192715 0.507689 0.433881
60 4 0.205869 0.433242 0.362468
61 1 0.262515 0.577757 0.418596
62 3 0.30552 0.605699 0.358903
63 4 0.306638 0.588463 0.453057
64 1 0.27002 0.695863 0.356504
65 3 0.300106 0.760429 0.397049
66 4 0.211347 0.714107 0.33547
67 1 0.396064 0.786597 0.367104
68 3 0.393932 0.839408 0.310912
69 4 0.461542 0.767985 0.362625
70 1 0.386282 0.924304 0.34484
71 3 0.462244 0.989918 0.336399
72 4 0.344237 0.951835 0.373124
73 1 0.55276 0.938547 0.349353
74 3 0.611613 0.958253 0.290771
75 4 0.599248 0.908674 0.37156
76 1 0.538556 0.928871 0.237803
77 3 0.477713 0.900896 0.183979
78 4 0.598014 0.903949 0.22804
79 1 0.384621 0.879266 0.218836
80 3 0.388935 0.802597 0.182439
81 4 0.363227 0.904657 0.18094
82 1 0.459582 0.754571 0.22235
83 3 0.414289 0.721731 0.27998
84 4 0.524632 0.748339 0.23072
85 1 0.396512 0.635202 0.264882
86 3 0.492689 0.599264 0.2781
87 4 0.35033 0.603702 0.244083
88 1 0.465325 0.549605 0.337994
89 3 0.384682 0.506091 0.370139
90 4 0.509875 0.579171 0.363486
91 1 0.442109 0.447293 0.411476
92 3 0.535646 0.453478 0.446756
93 4 0.429964 0.399023 0.390927
94 1 0.511494 0.395851 0.501539
95 3 0.450972 0.32277 0.506215
96 4 0.502763 0.428612 0.538845
97 1 0.522597 0.261613 0.532781
98 3 0.506408 0.271417 0.601424
99 4 0.559788 0.225955 0.506228
100 1 0.576309 0.207827 0.629212
101 3 0.683012 0.223684 0.641653
102 4 0.535918 0.165398 0.638365
103 1 0.717018 0.138752 0.658639
104 3 0.714532 0.080727 0.607925
105 4 0.704391 0.108213 0.696029
106 1 0.824978 0.0951371 0.583571
107 3 0.815917 0.102508 0.513057
108 5 0.796174 0.0551388 0.559779
109 1 0.743946 0.173993 0.514027
110 3 0.728082 0.249564 0.549999
111 4 0.682971 0.147548 0.50685
112 1 0.725693 0.310675 0.495127
113 3 0.775485 0.323593 0.431105
114 4 0.762184 0.328438 0.531164
115 1 0.780259 0.415415 0.433044
116 3 0.678786 0.426439 0.410066
117 5 0.826273 0.374706 0.443181
118 1 0.703671 0.467343 0.345006
119 3 0.615841 0.428578 0.316344
120 4 0.740688 0.475311 0.304631
121 1 0.612242 0.349144 0.352946
122 3 0.632825 0.305389 0.413522
123 4 0.592088 0.331034 0.312937
124 1 0.686574 0.231003 0.385578
125 3 0.761889 0.168456 0.365687
126 4 0.638937 0.188779 0.382345
127 1 0.83016 0.230883 0.33185
128 3 0.92452 0.205176 0.361106
129 4 0.848896 0.274034 0.302117
130 1 0.923021 0.254382 0.422854
131 3 0.910413 0.210412 0.483044
132 4 0.922964 0.304223 0.4465
133 1 0.90453 0.124176 0.459325
134 3 1.00036 0.103141 0.484914
135 4 0.914237 0.0809305 0.427025
136 1 0.997137 0.148203 0.549742
137 3 0.919851 0.126476 0.596629
138 4 1.03694 0.195287 0.545381
139 1 0.958068 0.173541 0.654766
140 3 0.947087 0.25853 0.637681
141 4 0.988688 0.150003 0.688527
142 1 0.973887 0.298423 0.700274
143 3 0.866646 0.310439 0.706268
144 4 0.98504 0.334587 0.665666
145 1 0.861909 0.33362 0.778342
146 3 0.846499 0.419297 0.767816
147 4 0.882704 0.33928 0.82063
148 1 0.772265 0.419926 0.712884
149 3 0.66598 0.402168 0.721897
150 4 0.760317 0.408794 0.669315
151 1 0.646739 0.448537 0.784451
152 3 0.700126 0.481121 0.841823
153 4 0.618181 0.398236 0.792951
154 1 0.612909 0.522148 0.875569
155 3 0.517188 0.487824 0.894519
156 4 0.612111 0.577686 0.867671
157 1 0.515082 0.493677 0.96646
158 3 0.589243 0.426809 0.974824
159 4 0.466664 0.532592 0.962498
ITEM: TIMESTEP
2000
ITEM: NUMBER OF ATOMS
159
ITEM: BOX BOUNDS ss ss ss
-13.351 11.9208
-9.05239 17.1995
-13.6943 18.6329
ITEM: ATOMS id type xs ys zs
1 1 0.402076 0.969075 0.471203
2 3 0.395461 0.896229 0.429841
3 4 0.347507 0.993964 0.471914
4 1 0.369745 0.831138 0.483811
5 3 0.278111 0.833412 0.507814
6 4 0.393664 0.80374 0.522503
7 1 0.232421 0.801259 0.444511
8 3 0.230228 0.720859 0.410798
9 4 0.214504 0.834306 0.405236
10 1 0.160332 0.676432 0.45266
11 3 0.0895258 0.692735 0.404704
12 4 0.135787 0.658386 0.495326
13 1 0.0971686 0.615485 0.360494
14 3 0.158598 0.633499 0.306402
15 5 0.069338 0.58669 0.39493
16 1 0.136759 0.559803 0.258437
17 3 0.0743674 0.494618 0.238986
18 4 0.190968 0.537768 0.259213
19 1 0.0640244 0.517407 0.163408
20 3 0.120872 0.450721 0.139525
21 4 0.0538682 0.558075 0.128347
22 1 0.0549556 0.396279 0.102473
23 3 0.1025 0.377439 0.0412634
24 4 0.00121009 0.373632 0.0938313
25 1 0.126315 0.469245 0.0207102
26 3 0.211193 0.448749 -0.00502397
27 4 0.122118 0.526245 0.0195171
28 1 0.24924 0.402643 0.0592163
29 3 0.253448 0.319705 0.0259575
30 4 0.279098 0.417078 0.0962716
31 1 0.241512 0.264335 0.0867902
32 3 0.292107 0.20461 0.13017
33 4 0.277342 0.241835 0.050167
34 1 0.256082 0.223317 0.197628
35 3 0.34549 0.222528 0.220062
36 5 0.259227 0.277084 0.180953
37 1 0.365352 0.31451 0.217864
38 3 0.4295 0.304613 0.274197
39 4 0.349594 0.369435 0.222431
40 1 0.376374 0.247727 0.31931
41 3 0.32516 0.168116 0.327013
42 4 0.348527 0.270523 0.356747
43 1 0.399999 0.107658 0.31178
44 3 0.470454 0.0977778 0.361851
45 4 0.421641 0.0887409 0.271745
46 1 0.446587 0.0137598 0.39369
47 3 0.435613 0.0209591 0.465545
48 4 0.506671 0.0202413 0.394043
49 1 0.362748 0.0816478 0.476056
50 3 0.429194 0.146757 0.485571
51 5 0.394586 0.108945 0.507167
52 1 0.375472 0.22631 0.479195
53 3 0.282384 0.252477 0.474205
54 5 0.31518 0.244727 0.470365
55 1 0.29293 0.34595 0.478533
56 3 0.355241 0.391022 0.435239
57 4 0.290218 0.376654 0.520034
58 1 0.296173 0.439993 0.388794
59 3 0.247369 0.513098 0.411707
60 4 0.257365 0.423421 0.353779
61 1 0.315489 0.57939 0.40443
62 3 0.36562 0.604586 0.344656
63 4 0.350629 0.592919 0.441865
64 1 0.326568 0.691168 0.331379
65 3 0.360017 0.755426 0.375999
66 4 0.273345 0.714014 0.313028
67 1 0.436993 0.784598 0.337525
68 3 0.421901 0.839447 0.281572
69 4 0.492862 0.763363 0.327226
70 1 0.435106 0.926031 0.308373
71 3 0.497621 0.986555 0.279616
72 4 0.409596 0.960378 0.339768
73 1 0.582815 0.939245 0.301787
74 3 0.619916 0.968346 0.236715
75 4 0.62289 0.905582 0.324713
76 1 0.567706 0.912774 0.186773
77 3 0.509235 0.87982 0.13685
78 4 0.613916 0.888736 0.167076
79 1 0.426325 0.874499 0.180846
80 3 0.39979 0.792917 0.157223
81 4 0.399814 0.899181 0.142321
82 1 0.473178 0.738121 0.183232
83 3 0.436373 0.716592 0.250019
84 4 0.531984 0.731562 0.18181
85 1 0.424342 0.622815 0.238753
86 3 0.501963 0.568908 0.237863
87 4 0.381999 0.589934 0.215856
88 1 0.496471 0.539591 0.314754
89 3 0.427941 0.476595 0.326128
90 4 0.528306 0.571344 0.346589
91 1 0.470379 0.431764 0.386291
92 3 0.545268 0.440845 0.432955
93 4 0.470016 0.38127 0.362902
94 1 0.508795 0.385647 0.490779
95 3 0.459929 0.309607 0.509164
96 4 0.489517 0.422165 0.525279
97 1 0.534797 0.254721 0.533744
98 3 0.541173 0.282268 0.60406
99 4 0.575164 0.22177 0.507898
100 1 0.593352 0.208882 0.635193
101 3 0.683986 0.196627 0.620537
102 4 0.548342 0.173488 0.656195
103 1 0.707149 0.127108 0.668641
104 3 0.694088 0.0571807 0.622401
105 4 0.704149 0.1053 0.713698
106 1 0.78095 0.0612336 0.585407
107 3 0.75007 0.0529031 0.517532
108 5 0.839218 0.0743424 0.592033
109 1 0.757332 0.142772 0.492169
110 3 0.702355 0.209726 0.513297
111 4 0.713353 0.113045 0.470425
112 1 0.729548 0.2846 0.47258
113 3 0.761424 0.315244 0.407165
114 4 0.745381 0.307634 0.515504
115 1 0.768617 0.406952 0.423266
116 3 0.68153 0.416719 0.391041
117 5 0.742307 0.457515 0.431434
118 1 0.705535 0.469508 0.331423
119 3 0.638929 0.427425 0.288571
120 4 0.739282 0.487123 0.296756
121 1 0.631321 0.342326 0.322227
122 3 0.623053 0.272237 0.368715
123 4 0.642923 0.331029 0.278409
124 1 0.702783 0.219575 0.354549
125 3 0.789141 0.181699 0.342572
126 4 0.672812 0.173436 0.342807
127 1 0.82679 0.257593 0.299406
128 3 0.912442 0.237021 0.328051
129 4 0.830444 0.309256 0.278119
130 1 0.898396 0.25489 0.402943
131 3 0.852243 0.189183 0.442745
132 4 0.897248 0.297629 0.435168
133 1 0.908307 0.114663 0.428889
134 3 0.990111 0.10405 0.464918
135 4 0.924069 0.0758153 0.39511
136 1 0.964707 0.137151 0.533518
137 3 0.881968 0.137559 0.573369
138 4 0.999238 0.183432 0.535762
139 1 0.920062 0.143745 0.645464
140 3 0.974375 0.199222 0.686853
141 4 0.926158 0.0963461 0.671377
142 1 0.913243 0.272825 0.698638
143 3 0.827241 0.308904 0.710942
144 4 0.932692 0.312535 0.66546
145 1 0.804464 0.26957 0.778617
146 3 0.74337 0.33682 0.787365
147 4 0.818669 0.277902 0.82382
148 1 0.713985 0.348302 0.712846
149 3 0.623993 0.313188 0.71744
150 4 0.717753 0.346974 0.665441
151 1 0.594341 0.362326 0.779686
152 3 0.623674 0.373545 0.849273
153 4 0.575638 0.305498 0.783228
154 1 0.549441 0.428159 0.87594
155 3 0.461136 0.399885 0.886095
156 4 0.549978 0.486824 0.87682
157 1 0.455345 0.39937 0.962665
158 3 0.411907 0.472273 0.987954
159 4 0.408089 0.431522 0.949905
ITEM: TIMESTEP
3000
ITEM: NUMBER OF ATOMS
159
ITEM: BOX BOUNDS ss ss ss
-13.2403 12.2381
-8.79572 17.3202
-13.414 18.5043
ITEM: ATOMS id type xs ys zs
1 1 0.438006 0.948879 0.494475
2 3 0.415528 0.880752 0.447752
3 4 0.400806 0.988021 0.471645
4 1 0.386133 0.814319 0.500724
5 3 0.296521 0.84027 0.517551
6 4 0.399074 0.774937 0.534407
7 1 0.253042 0.804886 0.45356
8 3 0.245855 0.724942 0.41694
9 4 0.236897 0.841302 0.414884
10 1 0.164719 0.690112 0.449712
11 3 0.101932 0.713171 0.394333
12 4 0.12755 0.682784 0.486621
13 1 0.12272 0.639511 0.345546
14 3 0.193151 0.586056 0.320884
15 5 0.179473 0.628078 0.35813
16 1 0.161177 0.564619 0.249709
17 3 0.0907229 0.504128 0.240514
18 4 0.196111 0.524405 0.271192
19 1 0.0591926 0.532338 0.169774
20 3 0.118269 0.475959 0.132824
21 4 0.0265298 0.563887 0.142643
22 1 0.0569195 0.406502 0.107669
23 3 0.109401 0.390356 0.0443604
24 4 0.00359115 0.386795 0.0937574
25 1 0.135341 0.476359 0.0266493
26 3 0.220985 0.445913 0.00451641
27 4 0.139664 0.537066 0.0278195
28 1 0.244113 0.391981 0.0654473
29 3 0.225332 0.307593 0.0370577
30 4 0.261568 0.408186 0.108113
31 1 0.21859 0.255644 0.101216
32 3 0.27013 0.20087 0.147091
33 4 0.23402 0.230461 0.0604826
34 1 0.227049 0.215177 0.216087
35 3 0.31389 0.212637 0.243837
36 5 0.286873 0.21336 0.207318
37 1 0.341808 0.304959 0.231459
38 3 0.401503 0.300223 0.286839
39 4 0.328778 0.363734 0.230511
40 1 0.35903 0.241214 0.336343
41 3 0.311763 0.161603 0.34085
42 4 0.327462 0.265801 0.372883
43 1 0.384283 0.0999067 0.328103
44 3 0.453382 0.0841905 0.380689
45 4 0.398098 0.0803079 0.284317
46 1 0.423795 0.00054804 0.408923
47 3 0.399683 -0.00632273 0.483238
48 4 0.48419 0.0135324 0.409153
49 1 0.36742 0.0846131 0.492606
50 3 0.429442 0.147622 0.513311
51 5 0.403349 0.0357783 0.492696
52 1 0.383148 0.230333 0.498046
53 3 0.292853 0.252822 0.506428
54 5 0.388036 0.257004 0.538821
55 1 0.295365 0.346963 0.490809
56 3 0.347883 0.389935 0.441418
57 4 0.290257 0.375917 0.531178
58 1 0.281671 0.438595 0.402148
59 3 0.247212 0.514791 0.434751
60 4 0.242084 0.424957 0.366888
61 1 0.314863 0.578527 0.409359
62 3 0.360513 0.598691 0.345738
63 4 0.347299 0.590636 0.447018
64 1 0.328799 0.691427 0.339433
65 3 0.374971 0.75417 0.382676
66 4 0.275982 0.712352 0.320197
67 1 0.444121 0.780435 0.328071
68 3 0.427075 0.837029 0.268323
69 4 0.495064 0.7541 0.310305
70 1 0.430338 0.918488 0.301409
71 3 0.48894 0.975616 0.266783
72 4 0.403755 0.956613 0.33268
73 1 0.575811 0.93177 0.281116
74 3 0.617115 0.924678 0.214791
75 4 0.615125 0.897587 0.305043
76 1 0.542365 0.905205 0.166094
77 3 0.480511 0.861392 0.120781
78 4 0.592919 0.874285 0.154332
79 1 0.406134 0.8636 0.170957
80 3 0.377468 0.776946 0.154829
81 4 0.380917 0.893173 0.136731
82 1 0.457492 0.729517 0.178993
83 3 0.427188 0.70764 0.246377
84 4 0.516395 0.720737 0.175043
85 1 0.399578 0.614417 0.232246
86 3 0.476154 0.565015 0.234538
87 4 0.35768 0.584916 0.21309
88 1 0.476798 0.531803 0.308998
89 3 0.408541 0.476203 0.335588
90 4 0.512173 0.56716 0.337191
91 1 0.461279 0.425577 0.388282
92 3 0.541395 0.424739 0.422578
93 4 0.453424 0.378288 0.361333
94 1 0.518625 0.377278 0.487405
95 3 0.471948 0.301607 0.500594
96 4 0.508304 0.415135 0.523107
97 1 0.544017 0.244673 0.523169
98 3 0.58883 0.271797 0.584199
99 4 0.564234 0.208208 0.491436
100 1 0.603004 0.186807 0.619714
101 3 0.691403 0.177829 0.594064
102 4 0.561028 0.153223 0.643438
103 1 0.728619 0.124781 0.654628
104 3 0.736561 0.0357849 0.633236
105 4 0.742796 0.102401 0.698428
106 1 0.779497 0.0468323 0.564572
107 3 0.79458 0.0465868 0.490519
108 5 0.748773 0.0341185 0.523319
109 1 0.7519 0.129655 0.469479
110 3 0.682517 0.190375 0.483783
111 4 0.725056 0.0888411 0.442088
112 1 0.722679 0.2702 0.461857
113 3 0.753333 0.281344 0.387886
114 4 0.735018 0.304729 0.501267
115 1 0.75114 0.379328 0.388026
116 3 0.665197 0.417862 0.378943
117 5 0.762438 0.427497 0.418136
118 1 0.657459 0.418871 0.301372
119 3 0.584382 0.379454 0.271158
120 4 0.682397 0.4408 0.262214
121 1 0.597265 0.289467 0.300455
122 3 0.622337 0.201389 0.295246
123 4 0.566739 0.2897 0.261313
124 1 0.706671 0.204868 0.33554
125 3 0.778092 0.173937 0.293912
126 4 0.674926 0.153872 0.322178
127 1 0.838291 0.250086 0.293329
128 3 0.921209 0.239986 0.329652
129 4 0.844765 0.302604 0.268068
130 1 0.894755 0.257489 0.402672
131 3 0.845111 0.189491 0.434601
132 4 0.88914 0.294211 0.439086
133 1 0.919188 0.126274 0.446497
134 3 0.953734 0.105379 0.514834
135 4 0.952902 0.0905612 0.423286
136 1 0.977188 0.189913 0.543307
137 3 0.892231 0.203199 0.577525
138 4 0.993496 0.247055 0.539243
139 1 0.906301 0.160876 0.643565
140 3 0.940664 0.21798 0.699077
141 4 0.921144 0.110859 0.667979
142 1 0.876583 0.289041 0.694264
143 3 0.783579 0.284015 0.691855
144 4 0.887981 0.337749 0.672697
145 1 0.762379 0.304571 0.766877
146 3 0.743851 0.390607 0.744159
147 4 0.770665 0.311945 0.812451
148 1 0.665595 0.369842 0.698707
149 3 0.572309 0.38849 0.698294
150 4 0.668034 0.349597 0.651596
151 1 0.54813 0.343485 0.768355
152 3 0.56237 0.375088 0.837431
153 4 0.531328 0.287422 0.76629
154 1 0.472587 0.399621 0.859406
155 3 0.379365 0.38818 0.862183
156 4 0.46528 0.456122 0.856969
157 1 0.375351 0.312837 0.911895
158 3 0.455048 0.277317 0.886243
159 4 0.334468 0.333917 0.940087
