LAMMPS protain data file

         186  atoms
         246  bonds
           0  angles
           0  dihedrals
           0  impropers

           5  atom types
           5  bond types
           0  angle types
           0  dihedral types
           0  improper types

-200.0	200.0	xlo xhi
-200.0	200.0	ylo yhi
-200.0	200.0	zlo zhi

Masses

           1	27.0
           2	14.0
           3	28.0
           4	60.0
           5	60.0

Atoms

           1	1	1	1	0.0	12.43599987	7.76399994	9.90200043
           2	1	1	3	0.0	12.0880003	7.0	12.14700031
           3	1	1	4	0.0	12.61100006	9.26399994	10.06000042
           4	1	2	1	0.0	14.73799992	6.04400015	12.36800003
           5	1	2	3	0.0	16.69099998	7.29899979	11.65299988
           6	1	2	4	0.0	15.18200016	4.55600023	12.11999989
           7	1	3	1	0.0	17.31699944	8.19099998	14.19400024
           8	1	3	3	0.0	17.52000046	6.88999987	16.18300056
           9	1	3	4	0.0	16.74200058	9.54800034	14.70400047
          10	1	4	1	0.0	20.0720005	7.60099983	16.71199989
          11	1	4	3	0.0	19.00600052	9.5340004	17.6590004
          12	1	4	4	0.0	21.56699944	7.92299986	16.55800056
          13	1	5	1	0.0	19.03300095	8.64000034	20.22200012
          14	1	5	3	0.0	19.50499916	8.8380003	22.5340004
          15	1	5	4	0.0	17.57699966	8.38000011	20.55900002
          16	1	6	1	0.0	22.13299942	7.77400017	22.38100052
          17	1	6	3	0.0	22.92900085	9.99300003	21.82799911
          18	1	6	4	0.0	23.12100029	6.64499998	22.10000038
          19	1	7	1	0.0	23.98200035	10.39099979	24.40099907
          20	1	7	3	0.0	25.9810009	9.04199982	24.3010006
          21	1	7	4	0.0	23.61100006	10.57400036	25.90399933
          22	1	8	1	0.0	27.60899925	11.22700024	23.61300087
          23	1	8	3	0.0	27.78000069	9.63799953	21.8579998
          24	1	8	4	0.0	28.27599907	11.52900028	24.96999931
          25	1	9	1	0.0	29.80400085	8.19299984	23.04000092
          26	1	9	3	0.0	30.05800056	5.86199999	23.42099953
          27	1	9	4	0.0	31.32999992	8.33300018	23.00200081
          28	1	10	1	0.0	27.55200005	5.61399984	24.74699974
          29	1	10	3	0.0	27.12700081	5.04300022	22.45000076
          30	1	10	4	0.0	26.3920002	5.99900007	25.65099907
          31	1	11	1	0.0	26.5	2.39499998	22.9829998
          32	1	11	3	0.0	24.47699928	3.60299993	22.73200035
          33	1	11	4	0.0	26.08099937	1.20200002	23.8579998
          34	1	12	1	0.0	24.3220005	3.24099994	19.98399925
          35	1	12	3	0.0	22.77599907	1.477	20.42900085
          36	1	12	4	0.0	24.70400047	2.86500001	18.54299927
          37	1	13	1	0.0	20.56100082	3.19799995	20.31399918
          38	1	13	3	0.0	20.29999924	5.05999994	18.85499954
          39	1	13	4	0.0	19.90800095	3.38400006	21.70100021
          40	1	14	1	0.0	17.86000061	4.12599993	17.81800079
          41	1	14	3	0.0	15.97099972	3.60899997	19.25099945
          42	1	14	4	0.0	17.86400032	3.36199999	16.4489994
          43	1	15	1	0.0	14.35299969	5.55100012	17.93199921
          44	1	15	3	0.0	14.10099983	6.26200008	15.66899967
          45	1	15	4	0.0	14.25899982	6.87400007	18.65999985
          46	1	16	1	0.0	11.59399986	5.16200018	15.38500023
          47	1	16	3	0.0	10.01200008	6.49399996	16.60099983
          48	1	16	4	0.0	10.67800045	3.92000008	15.11999989
          49	1	17	1	0.0	10.07699966	8.65600014	14.85999966
          50	1	17	3	0.0	8.16100025	7.49100018	14.06599998
          51	1	17	4	0.0	10.70600033	9.75	13.98400021
          52	1	18	1	0.0	6.43599987	9.55200005	14.56700039
          53	1	18	3	0.0	7.12400007	10.24600029	12.30599976
          54	1	18	4	0.0	5.6869998	10.56999969	15.33699989
          55	1	19	1	0.0	4.79199982	9.42700005	11.11200047
          56	1	19	3	0.0	4.43200016	11.77900028	11.25899982
          57	1	19	4	0.0	3.29900002	8.97200012	11.03499985
          58	1	20	1	0.0	5.75	12.27499962	8.80799961
          59	1	20	3	0.0	7.17799997	14.17500019	8.90400028
          60	1	20	5	0.0	5.5619998	12.24363963	7.30462796
          61	1	21	1	0.0	8.80200005	13.25500011	10.85700035
          62	1	21	3	0.0	10.30799961	11.63300037	9.84300041
          63	1	21	4	0.0	9.08199978	12.88799953	12.29699993
          64	1	22	1	0.0	11.69900036	13.38700008	8.37899971
          65	1	22	3	0.0	14.05000019	13.27000046	8.25500011
          66	1	22	4	0.0	11.49100018	14.07999992	7.01399994
          67	1	23	1	0.0	14.48799992	14.85499954	10.51000023
          68	1	23	3	0.0	14.17599964	13.54100037	12.46000004
          69	1	23	4	0.0	14.36499977	16.35099983	10.95300007
          70	1	24	1	0.0	16.96199989	13.75699997	13.14700031
          71	1	24	3	0.0	18.15399933	15.80500031	12.76900005
          72	1	24	4	0.0	17.92700005	12.6079998	12.88000011
          73	1	25	1	0.0	19.0529995	16.03300095	15.34700012
          74	1	25	3	0.0	20.18300056	14.36999989	16.75499916
          75	1	25	4	0.0	18.24099922	17.10099983	16.11300087
          76	1	26	1	0.0	22.38199997	16.1989994	17.0890007
          77	1	26	3	0.0	22.71500015	18.61100006	17.10499954
          78	1	26	4	0.0	23.57099915	15.76200008	16.22200012
          79	1	27	1	0.0	22.64999962	18.85499954	19.86199951
          80	1	27	3	0.0	24.02599907	17.60700035	21.34799957
          81	1	27	4	0.0	21.47400093	18.95499992	20.86599922
          82	1	28	1	0.0	25.79599953	19.62100029	21.74799919
          83	1	28	3	0.0	25.74399948	21.99500084	22.01600075
          84	1	28	4	0.0	26.99200058	19.54800034	20.79500008
          85	1	29	1	0.0	26.57099915	21.91600037	24.63500023
          86	1	29	3	0.0	27.72800064	20.24399948	25.93199921
          87	1	29	4	0.0	25.28899956	22.51300049	25.14500046
          88	1	30	1	0.0	28.74200058	22.17900085	27.72800064
          89	1	30	3	0.0	27.2859993	23.63800049	28.96500015
          90	1	30	4	0.0	30.05500031	22.96999931	27.5510006
          91	1	31	1	0.0	27.7840004	22.38599968	31.36499977
          92	1	31	3	0.0	30.0739994	21.68700027	31.78700066
          93	1	31	4	0.0	26.4640007	21.88999939	31.81699944
          94	1	32	1	0.0	29.90500069	22.15200043	34.50999832
          95	1	32	3	0.0	31.43400002	20.46199989	35.03699875
          96	1	32	4	0.0	29.5189991	22.72900009	35.88299942
          97	1	33	1	0.0	29.91699982	18.29599953	34.15299988
          98	1	33	3	0.0	31.54199982	16.87199974	33.07600021
          99	1	33	4	0.0	28.68799973	17.40699959	34.20000076
         100	1	34	1	0.0	31.38500023	18.10700035	30.64900017
         101	1	34	3	0.0	29.8010006	19.40999985	29.38299942
         102	1	34	5	0.0	30.60199928	16.31406949	28.33773861
         103	1	35	1	0.0	30.43600082	18.14100075	26.98500061
         104	1	35	3	0.0	29.63599968	15.86499977	26.87999916
         105	1	35	4	0.0	31.53199959	18.00600052	25.87999916
         106	1	36	1	0.0	27.07299995	16.6439991	26.16799927
         107	1	36	3	0.0	26.50900078	17.74399948	24.12599945
         108	1	36	4	0.0	25.83499908	17.10199928	27.06800079
         109	1	37	1	0.0	25.68700027	15.36499977	22.88400078
         110	1	37	3	0.0	24.41900063	13.52499962	23.68400002
         111	1	37	4	0.0	26.55900002	14.57699966	21.85300064
         112	1	38	1	0.0	21.97800064	14.57999992	22.70299911
         113	1	38	3	0.0	21.78499985	15.22799969	20.4260006
         114	1	38	4	0.0	21.02099991	15.47900009	23.50499916
         115	1	39	1	0.0	20.37800026	12.90999985	19.6590004
         116	1	39	3	0.0	18.51799965	11.84799957	20.72299957
         117	1	39	4	0.0	21.18799973	11.7130003	19.16300011
         118	1	40	1	0.0	16.78800011	12.22200012	18.67700005
         119	1	40	3	0.0	16.74200058	12.85400009	16.35199928
         120	1	40	5	0.0	18.17700005	10.78157997	18.33990037
         121	1	41	1	0.0	13.95400047	12.60400009	16.22299957
         122	1	41	3	0.0	13.36600018	14.68599987	17.2329998
         123	1	41	4	0.0	12.64400005	11.80599976	16.34600067
         124	1	42	1	0.0	12.93099976	15.9630003	14.7510004
         125	1	42	3	0.0	15.27999973	16.56399918	14.51200008
         126	1	42	5	0.0	13.37199974	15.65711513	13.69053369
         127	1	43	1	0.0	14.67300034	19.28199959	14.43099976
         128	1	43	3	0.0	13.33500004	21.13800049	14.88199997
         129	1	43	4	0.0	14.8039999	19.79500008	12.98799992
         130	1	44	1	0.0	14.14500046	21.33799934	17.56299973
         131	1	44	3	0.0	15.2869997	23.07799911	16.31599998
         132	1	44	4	0.0	14.62300014	20.80800056	18.89800072
         133	1	45	1	0.0	14.3409996	25.12000084	17.92900085
         134	1	45	3	0.0	16.32999992	24.78700066	19.21500015
         135	1	45	4	0.0	13.41600037	25.96199989	18.92399979
         136	1	46	1	0.0	17.83699989	26.70299911	17.88100052
         137	1	46	3	0.0	16.87100029	28.49300003	19.21699905
         138	1	46	4	0.0	18.66699982	27.29599953	16.74900055
         139	1	47	1	0.0	18.52400017	27.78199959	21.48900032
         140	1	47	3	0.0	20.87999916	27.97599983	21.02000046
         141	1	47	4	0.0	18.38999939	26.87400055	22.68600082
         142	1	48	1	0.0	21.20499992	30.24699974	22.56299973
         143	1	48	3	0.0	21.96999931	28.68799973	24.25900078
         144	1	48	4	0.0	20.80800056	31.4829998	23.37199974
         145	1	49	1	0.0	24.56299973	28.64500046	23.31399918
         146	1	49	3	0.0	25.73600006	26.62100029	23.02499962
         147	1	49	5	0.0	23.45700073	27.00941109	22.63866105
         148	1	50	1	0.0	23.47599983	25.20599937	22.01600075
         149	1	50	3	0.0	23.54100037	25.92399979	19.69099998
         150	1	50	4	0.0	22.03000069	24.61499977	22.24099922
         151	1	51	1	0.0	25.02099991	23.82099915	18.81500053
         152	1	51	3	0.0	23.93499947	21.71699905	18.98500061
         153	1	51	4	0.0	26.43700027	23.33300018	18.72999954
         154	1	52	1	0.0	22.30200005	22.07900047	16.75
         155	1	52	3	0.0	22.90399933	22.74900055	14.52499962
         156	1	52	4	0.0	20.91500092	22.74799919	17.04199982
         157	1	53	1	0.0	22.61499977	20.08200073	13.53899956
         158	1	53	3	0.0	21.20299911	18.1989994	14.01099968
         159	1	53	4	0.0	23.87899971	19.21800041	13.43200016
         160	1	54	1	0.0	19.54199982	18.5890007	11.76099968
         161	1	54	3	0.0	20.74200058	18.55200005	9.65200043
         162	1	54	4	0.0	18.26000023	19.37700081	11.71700001
         163	1	55	1	0.0	19.64800072	16.09000015	8.89500046
         164	1	55	3	0.0	17.49099922	15.22299957	9.53600025
         165	1	55	4	0.0	20.89900017	15.23400021	8.97500038
         166	1	56	1	0.0	16.90600014	14.34200001	6.92199993
         167	1	56	3	0.0	16.5720005	12.84000015	5.08099985
         168	1	56	4	0.0	16.1439991	15.3409996	6.02799988
         169	1	57	1	0.0	18.06100082	10.77499962	6.20599985
         170	1	57	3	0.0	18.40099907	10.20300007	8.50199986
         171	1	57	4	0.0	19.23699951	10.72200012	5.2670002
         172	1	58	1	0.0	18.05599976	7.43200016	8.07600021
         173	1	58	3	0.0	20.42200089	7.52699995	8.31599998
         174	1	58	4	0.0	17.96699905	6.00199986	7.47100019
         175	1	59	1	0.0	20.27599907	7.34700012	11.18500042
         176	1	59	3	0.0	22.57600021	7.9289999	10.79300022
         177	1	59	4	0.0	20.81299973	5.94799995	11.52499962
         178	1	60	1	0.0	22.02099991	10.50300026	9.93000031
         179	1	60	3	0.0	23.74699974	11.97599983	10.74199963
         180	1	60	4	0.0	21.28800011	11.46700001	8.94499969
         181	1	61	1	0.0	22.72599983	12.01599979	13.36900043
         182	1	61	3	0.0	23.79500008	11.85400009	15.44099998
         183	1	61	4	0.0	21.44599915	12.5340004	14.11600018
         184	1	62	1	0.0	25.7329998	10.03600025	14.70300007
         185	1	62	3	0.0	26.70400047	12.14599991	14.42000008
         186	1	62	4	0.0	26.55699921	8.97099972	14.01599979

Bond Coeffs

           1	200.0	3.77
           2	200.0	2.41
           3	200.0	2.50
           4	200.0	1.54
           5	200.0	1.54
Bonds

           1	2	1	2
           2	4	1	3
           3	1	1	4
           4	3	2	4
           5	2	4	5
           6	4	4	6
           7	1	4	7
           8	3	5	7
           9	2	7	8
          10	4	7	9
          11	1	7	10
          12	3	8	10
          13	2	10	11
          14	4	10	12
          15	1	10	13
          16	3	11	13
          17	2	13	14
          18	4	13	15
          19	1	13	16
          20	3	14	16
          21	2	16	17
          22	4	16	18
          23	1	16	19
          24	3	17	19
          25	2	19	20
          26	4	19	21
          27	1	19	22
          28	3	20	22
          29	2	22	23
          30	4	22	24
          31	1	22	25
          32	3	23	25
          33	2	25	26
          34	4	25	27
          35	1	25	28
          36	3	26	28
          37	2	28	29
          38	4	28	30
          39	1	28	31
          40	3	29	31
          41	2	31	32
          42	4	31	33
          43	1	31	34
          44	3	32	34
          45	2	34	35
          46	4	34	36
          47	1	34	37
          48	3	35	37
          49	2	37	38
          50	4	37	39
          51	1	37	40
          52	3	38	40
          53	2	40	41
          54	4	40	42
          55	1	40	43
          56	3	41	43
          57	2	43	44
          58	4	43	45
          59	1	43	46
          60	3	44	46
          61	2	46	47
          62	4	46	48
          63	1	46	49
          64	3	47	49
          65	2	49	50
          66	4	49	51
          67	1	49	52
          68	3	50	52
          69	2	52	53
          70	4	52	54
          71	1	52	55
          72	3	53	55
          73	2	55	56
          74	4	55	57
          75	1	55	58
          76	3	56	58
          77	2	58	59
          78	5	58	60
          79	1	58	61
          80	3	59	61
          81	2	61	62
          82	4	61	63
          83	1	61	64
          84	3	62	64
          85	2	64	65
          86	4	64	66
          87	1	64	67
          88	3	65	67
          89	2	67	68
          90	4	67	69
          91	1	67	70
          92	3	68	70
          93	2	70	71
          94	4	70	72
          95	1	70	73
          96	3	71	73
          97	2	73	74
          98	4	73	75
          99	1	73	76
         100	3	74	76
         101	2	76	77
         102	4	76	78
         103	1	76	79
         104	3	77	79
         105	2	79	80
         106	4	79	81
         107	1	79	82
         108	3	80	82
         109	2	82	83
         110	4	82	84
         111	1	82	85
         112	3	83	85
         113	2	85	86
         114	4	85	87
         115	1	85	88
         116	3	86	88
         117	2	88	89
         118	4	88	90
         119	1	88	91
         120	3	89	91
         121	2	91	92
         122	4	91	93
         123	1	91	94
         124	3	92	94
         125	2	94	95
         126	4	94	96
         127	1	94	97
         128	3	95	97
         129	2	97	98
         130	4	97	99
         131	1	97	100
         132	3	98	100
         133	2	100	101
         134	5	100	102
         135	1	100	103
         136	3	101	103
         137	2	103	104
         138	4	103	105
         139	1	103	106
         140	3	104	106
         141	2	106	107
         142	4	106	108
         143	1	106	109
         144	3	107	109
         145	2	109	110
         146	4	109	111
         147	1	109	112
         148	3	110	112
         149	2	112	113
         150	4	112	114
         151	1	112	115
         152	3	113	115
         153	2	115	116
         154	4	115	117
         155	1	115	118
         156	3	116	118
         157	2	118	119
         158	5	118	120
         159	1	118	121
         160	3	119	121
         161	2	121	122
         162	4	121	123
         163	1	121	124
         164	3	122	124
         165	2	124	125
         166	5	124	126
         167	1	124	127
         168	3	125	127
         169	2	127	128
         170	4	127	129
         171	1	127	130
         172	3	128	130
         173	2	130	131
         174	4	130	132
         175	1	130	133
         176	3	131	133
         177	2	133	134
         178	4	133	135
         179	1	133	136
         180	3	134	136
         181	2	136	137
         182	4	136	138
         183	1	136	139
         184	3	137	139
         185	2	139	140
         186	4	139	141
         187	1	139	142
         188	3	140	142
         189	2	142	143
         190	4	142	144
         191	1	142	145
         192	3	143	145
         193	2	145	146
         194	5	145	147
         195	1	145	148
         196	3	146	148
         197	2	148	149
         198	4	148	150
         199	1	148	151
         200	3	149	151
         201	2	151	152
         202	4	151	153
         203	1	151	154
         204	3	152	154
         205	2	154	155
         206	4	154	156
         207	1	154	157
         208	3	155	157
         209	2	157	158
         210	4	157	159
         211	1	157	160
         212	3	158	160
         213	2	160	161
         214	4	160	162
         215	1	160	163
         216	3	161	163
         217	2	163	164
         218	4	163	165
         219	1	163	166
         220	3	164	166
         221	2	166	167
         222	4	166	168
         223	1	166	169
         224	3	167	169
         225	2	169	170
         226	4	169	171
         227	1	169	172
         228	3	170	172
         229	2	172	173
         230	4	172	174
         231	1	172	175
         232	3	173	175
         233	2	175	176
         234	4	175	177
         235	1	175	178
         236	3	176	178
         237	2	178	179
         238	4	178	180
         239	1	178	181
         240	3	179	181
         241	2	181	182
         242	4	181	183
         243	1	181	184
         244	3	182	184
         245	2	184	185
         246	4	184	186

