ITEM: TIMESTEP
0
ITEM: NUMBER OF ATOMS
186
ITEM: BOX BOUNDS ss ss ss
3.259 31.582
1.162 31.523
5.041 35.923
ITEM: ATOMS id type xs ys zs
1 1 0.324012 0.21745 0.157406
2 3 0.311725 0.192286 0.230102
3 4 0.330191 0.266856 0.162522
4 1 0.405289 0.160798 0.237258
5 3 0.474244 0.202134 0.214105
6 4 0.420965 0.111788 0.229227
7 1 0.496346 0.231514 0.296386
8 3 0.503513 0.188663 0.360793
9 4 0.476044 0.27621 0.312901
10 1 0.593617 0.212081 0.377922
11 3 0.555979 0.275749 0.408588
12 4 0.6464 0.222687 0.372936
13 1 0.556933 0.246303 0.491581
14 3 0.573597 0.252824 0.566446
15 4 0.505526 0.237739 0.502493
16 1 0.666384 0.217779 0.561492
17 3 0.694489 0.290867 0.543585
18 4 0.701268 0.180594 0.552393
19 1 0.731667 0.303975 0.626902
20 3 0.802246 0.259543 0.623664
21 4 0.718568 0.310003 0.675572
22 1 0.859725 0.331511 0.601386
23 3 0.865763 0.279174 0.544557
24 4 0.883275 0.341458 0.645327
25 1 0.937224 0.23158 0.582831
26 3 0.946192 0.154804 0.595169
27 4 0.991103 0.236191 0.581601
28 1 0.857713 0.146635 0.638106
29 3 0.842707 0.127828 0.563726
30 4 0.816757 0.159316 0.667379
31 1 0.82057 0.0406113 0.580986
32 3 0.749144 0.0803992 0.572858
33 4 0.805776 0.00131748 0.609319
34 1 0.743671 0.068476 0.483874
35 3 0.689087 0.0103752 0.498284
36 4 0.757159 0.0560917 0.437213
37 1 0.610882 0.0670597 0.49456
38 3 0.601666 0.128388 0.447316
39 4 0.587826 0.073186 0.539473
40 1 0.515517 0.0976252 0.413736
41 3 0.448823 0.0805968 0.460139
42 4 0.515659 0.0724614 0.369406
43 1 0.391696 0.14456 0.417428
44 3 0.382798 0.167979 0.344149
45 4 0.388377 0.188136 0.441001
46 1 0.294284 0.131748 0.334952
47 3 0.238428 0.17562 0.374328
48 4 0.261943 0.0908402 0.326371
49 1 0.240723 0.24683 0.317952
50 3 0.173075 0.208458 0.292241
51 4 0.262931 0.282863 0.289586
52 1 0.11217 0.276341 0.308464
53 3 0.136462 0.2992 0.23525
54 4 0.0857254 0.309871 0.333398
55 1 0.0541256 0.272224 0.196587
56 3 0.0414151 0.349692 0.201347
57 4 0.00141228 0.257238 0.194094
58 1 0.0879497 0.366029 0.12198
59 3 0.138368 0.428609 0.125089
60 5 0.081312 0.364996 0.0732993
61 1 0.195707 0.398307 0.18833
62 3 0.248879 0.344883 0.155495
63 4 0.205593 0.386219 0.234959
64 1 0.297991 0.402655 0.108089
65 3 0.380998 0.398801 0.104074
66 4 0.290647 0.42548 0.0638884
67 1 0.396462 0.451006 0.177093
68 3 0.385446 0.407727 0.240237
69 4 0.392119 0.50028 0.191438
70 1 0.483812 0.414841 0.262483
71 3 0.525898 0.482296 0.250243
72 4 0.517883 0.376997 0.253837
73 1 0.557639 0.489806 0.333722
74 3 0.597536 0.435032 0.379315
75 4 0.528969 0.524983 0.358526
76 1 0.675176 0.495274 0.39013
77 3 0.686933 0.574718 0.390648
78 4 0.717156 0.48088 0.362056
79 1 0.684638 0.582754 0.479924
80 3 0.73322 0.541649 0.528042
81 4 0.643117 0.586048 0.512434
82 1 0.795714 0.607984 0.540995
83 3 0.793878 0.686176 0.549673
84 4 0.837941 0.60558 0.510135
85 1 0.823077 0.683574 0.63448
86 3 0.863927 0.628504 0.676478
87 4 0.777813 0.703238 0.650994
88 1 0.899728 0.692237 0.734635
89 3 0.848321 0.740292 0.774691
90 4 0.946086 0.71829 0.728904
91 1 0.865904 0.699055 0.852406
92 3 0.946757 0.676032 0.866071
93 4 0.819299 0.682718 0.867042
94 1 0.94079 0.691347 0.954245
95 3 0.994775 0.635684 0.97131
96 4 0.927162 0.710352 0.998705
97 1 0.941214 0.564342 0.942685
98 3 0.998588 0.51744 0.90781
99 4 0.897822 0.535061 0.944207
100 1 0.993045 0.558117 0.829221
101 3 0.937118 0.601034 0.788226
102 5 0.965399 0.499064 0.754379
103 1 0.959538 0.559237 0.710576
104 3 0.931293 0.484273 0.707176
105 4 0.998235 0.554791 0.674794
106 1 0.840801 0.50993 0.68412
107 3 0.820888 0.546161 0.617998
108 4 0.797091 0.525016 0.713263
109 1 0.791865 0.467804 0.57778
110 3 0.747096 0.4072 0.603685
111 4 0.822653 0.44185 0.544395
112 1 0.660912 0.441949 0.571919
113 3 0.654097 0.463292 0.498187
114 4 0.627123 0.471559 0.597889
115 1 0.60442 0.386944 0.47335
116 3 0.538749 0.351965 0.507804
117 4 0.633019 0.347518 0.457289
118 1 0.477668 0.364283 0.441552
119 3 0.476044 0.385099 0.366265
120 5 0.52671 0.31684 0.430636
121 1 0.377608 0.376865 0.362088
122 3 0.356848 0.44544 0.394793
123 4 0.331356 0.350581 0.366071
124 1 0.341489 0.4875 0.314423
125 3 0.424425 0.507296 0.306684
126 5 0.35706 0.477425 0.280083
127 1 0.402994 0.596818 0.304061
128 3 0.355753 0.657949 0.318665
129 4 0.407619 0.613715 0.257334
130 1 0.384352 0.664537 0.405479
131 3 0.424673 0.721847 0.365099
132 4 0.401229 0.64708 0.448708
133 1 0.391272 0.789104 0.417331
134 3 0.461498 0.778136 0.458973
135 4 0.358613 0.816837 0.44955
136 1 0.514705 0.841244 0.415776
137 3 0.480599 0.900201 0.459038
138 4 0.54401 0.860775 0.379121
139 1 0.538961 0.876783 0.532608
140 3 0.622145 0.883172 0.517421
141 4 0.53423 0.846876 0.571368
142 1 0.633619 0.957972 0.567386
143 3 0.660629 0.906624 0.622304
144 4 0.619602 0.998683 0.593582
145 1 0.75218 0.905207 0.591704
146 3 0.793595 0.838543 0.582346
147 5 0.713131 0.851336 0.569836
148 1 0.713802 0.791937 0.549673
149 3 0.716096 0.815586 0.474386
150 4 0.662748 0.772471 0.556959
151 1 0.768351 0.746319 0.44602
152 3 0.730007 0.67702 0.451525
153 4 0.818346 0.730246 0.443268
154 1 0.672351 0.688943 0.379153
155 3 0.693606 0.711011 0.307104
156 4 0.62338 0.710978 0.388608
157 1 0.683402 0.623168 0.275176
158 3 0.633549 0.561148 0.29046
159 4 0.72803 0.59471 0.271712
160 1 0.574904 0.573993 0.217602
161 3 0.617272 0.572774 0.14931
162 4 0.52964 0.599947 0.216178
163 1 0.578646 0.491683 0.124798
164 3 0.502489 0.463127 0.145554
165 4 0.622815 0.463489 0.127388
166 1 0.481835 0.43411 0.0609093
167 3 0.470042 0.384638 0.00129525
168 4 0.454931 0.467014 0.0319604
169 1 0.522614 0.316623 0.0377242
170 3 0.534618 0.297783 0.112072
171 4 0.564135 0.314878 0.00731819
172 1 0.522438 0.206515 0.0982773
173 3 0.605974 0.209644 0.106049
174 4 0.519295 0.159415 0.0786866
175 1 0.600819 0.203715 0.198951
176 3 0.682025 0.222885 0.186257
177 4 0.619779 0.157636 0.20996
178 1 0.66243 0.307664 0.158312
179 3 0.72337 0.356181 0.184606
180 4 0.63655 0.339416 0.126417
181 1 0.687321 0.357498 0.269672
182 3 0.725064 0.352162 0.336766
183 4 0.642128 0.374559 0.293861
184 1 0.793489 0.292283 0.312868
185 3 0.827773 0.36178 0.303704
186 4 0.822582 0.257205 0.290622
ITEM: TIMESTEP
1000
ITEM: NUMBER OF ATOMS
186
ITEM: BOX BOUNDS ss ss ss
3.259 31.582
1.162 31.523
5.041 35.923
ITEM: ATOMS id type xs ys zs
1 1 0.324146 0.211817 0.157337
2 3 0.336861 0.196565 0.233029
3 4 0.342036 0.260986 0.147665
4 1 0.41514 0.160146 0.227987
5 3 0.476848 0.218223 0.222012
6 4 0.440955 0.119853 0.21206
7 1 0.487352 0.230365 0.303595
8 3 0.515329 0.177023 0.357311
9 4 0.451197 0.260596 0.331322
10 1 0.592019 0.212089 0.377726
11 3 0.588153 0.268642 0.429813
12 4 0.64122 0.229002 0.362454
13 1 0.562344 0.232377 0.497056
14 3 0.596058 0.234661 0.568582
15 4 0.515051 0.215331 0.510025
16 1 0.676556 0.205698 0.554428
17 3 0.705331 0.280608 0.549053
18 4 0.717129 0.177517 0.535719
19 1 0.742047 0.289651 0.622344
20 3 0.819627 0.258823 0.630826
21 4 0.731405 0.294208 0.670204
22 1 0.868708 0.320151 0.593068
23 3 0.881013 0.272083 0.531025
24 4 0.894728 0.331198 0.634616
25 1 0.950078 0.226573 0.562112
26 3 0.963457 0.162058 0.607232
27 4 1.00315 0.237506 0.562542
28 1 0.880193 0.135211 0.610817
29 3 0.875898 0.104855 0.535916
30 4 0.840752 0.145312 0.640054
31 1 0.836163 0.0319861 0.557743
32 3 0.759797 0.0642511 0.545205
33 4 0.827609 -0.00912789 0.584527
34 1 0.756205 0.0620251 0.463489
35 3 0.696956 0.00673508 0.466396
36 4 0.774926 0.0525989 0.41878
37 1 0.625192 0.0548965 0.478472
38 3 0.601013 0.119133 0.437568
39 4 0.60856 0.0623036 0.525591
40 1 0.526375 0.0856293 0.401639
41 3 0.45581 0.0696094 0.444679
42 4 0.524538 0.0652034 0.356049
43 1 0.402284 0.128472 0.412275
44 3 0.379938 0.145742 0.339493
45 4 0.396912 0.171896 0.435035
46 1 0.294575 0.125774 0.342302
47 3 0.253166 0.18309 0.380926
48 4 0.261873 0.0846483 0.340942
49 1 0.244194 0.237143 0.319019
50 3 0.175647 0.19758 0.294327
51 4 0.267203 0.264911 0.283547
52 1 0.115782 0.257437 0.311637
53 3 0.129918 0.285062 0.238724
54 4 0.0886391 0.289461 0.340216
55 1 0.0517244 0.258447 0.205244
56 3 0.0338646 0.333003 0.19488
57 4 0.00275599 0.237977 0.197286
58 1 0.0815281 0.353829 0.133569
59 3 0.139798 0.411135 0.135516
60 5 0.0321754 0.366597 0.15031
61 1 0.193604 0.382043 0.191454
62 3 0.25257 0.334831 0.156524
63 4 0.203909 0.373067 0.238519
64 1 0.292028 0.391758 0.108807
65 3 0.376543 0.402049 0.105853
66 4 0.279861 0.418467 0.0681164
67 1 0.390426 0.439778 0.179606
68 3 0.397071 0.400736 0.249616
69 4 0.390778 0.49089 0.188604
70 1 0.487449 0.412196 0.260537
71 3 0.540739 0.472451 0.253037
72 4 0.51688 0.372078 0.249476
73 1 0.554176 0.490037 0.332106
74 3 0.59956 0.442556 0.376607
75 4 0.522528 0.519764 0.362135
76 1 0.668838 0.491806 0.394058
77 3 0.689471 0.569941 0.395568
78 4 0.709865 0.48224 0.361707
79 1 0.682259 0.580984 0.477738
80 3 0.734657 0.542589 0.52374
81 4 0.638205 0.586899 0.506383
82 1 0.793688 0.60507 0.53861
83 3 0.795833 0.684899 0.552139
84 4 0.83692 0.601774 0.505784
85 1 0.823011 0.684271 0.629002
86 3 0.857262 0.637638 0.681068
87 4 0.780395 0.712689 0.637347
88 1 0.891465 0.698125 0.73271
89 3 0.853306 0.749952 0.778407
90 4 0.941588 0.717319 0.724498
91 1 0.857339 0.712319 0.850944
92 3 0.931119 0.680501 0.873746
93 4 0.807851 0.692808 0.863497
94 1 0.935929 0.705553 0.951158
95 3 0.988149 0.640903 0.966397
96 4 0.922271 0.718914 0.995067
97 1 0.933658 0.579737 0.940944
98 3 0.981593 0.52946 0.9067
99 4 0.880847 0.56087 0.942547
100 1 0.981606 0.563789 0.829549
101 3 0.95164 0.610799 0.770261
102 5 0.989464 0.522469 0.855153
103 1 0.942061 0.554544 0.715288
104 3 0.90008 0.485931 0.708638
105 4 0.985324 0.552241 0.686414
106 1 0.821681 0.515281 0.685991
107 3 0.808462 0.538875 0.617357
108 4 0.780907 0.528066 0.717595
109 1 0.777274 0.470735 0.578502
110 3 0.72566 0.40687 0.582392
111 4 0.812848 0.446067 0.548442
112 1 0.646468 0.449513 0.570291
113 3 0.632646 0.46362 0.494978
114 4 0.612236 0.48013 0.595906
115 1 0.583572 0.40003 0.471386
116 3 0.514984 0.371955 0.509614
117 4 0.614267 0.360694 0.454955
118 1 0.453409 0.378515 0.45035
119 3 0.451188 0.397556 0.374379
120 5 0.428683 0.354862 0.415208
121 1 0.362588 0.39176 0.360985
122 3 0.332007 0.462527 0.390474
123 4 0.320463 0.367017 0.361661
124 1 0.323335 0.503482 0.320767
125 3 0.400695 0.532492 0.328807
126 5 0.302977 0.505448 0.362777
127 1 0.391774 0.60874 0.30353
128 3 0.344567 0.67124 0.324986
129 4 0.392266 0.624972 0.255879
130 1 0.381933 0.6806 0.401041
131 3 0.429193 0.738574 0.371357
132 4 0.399244 0.665251 0.443883
133 1 0.392802 0.805652 0.404154
134 3 0.462473 0.803086 0.446812
135 4 0.360762 0.834343 0.433935
136 1 0.518827 0.848275 0.407177
137 3 0.508654 0.914979 0.45039
138 4 0.544253 0.867672 0.368529
139 1 0.543823 0.888793 0.520435
140 3 0.62657 0.901416 0.505212
141 4 0.5363 0.864158 0.559622
142 1 0.636933 0.969707 0.553323
143 3 0.674335 0.926591 0.611774
144 4 0.627047 1.01083 0.577389
145 1 0.752942 0.916658 0.582257
146 3 0.754354 0.839418 0.599682
147 5 0.80202 0.894699 0.589874
148 1 0.714037 0.806276 0.537797
149 3 0.722399 0.812915 0.460489
150 4 0.660927 0.80391 0.537143
151 1 0.76904 0.74682 0.442372
152 3 0.725285 0.678673 0.437753
153 4 0.817693 0.728369 0.443506
154 1 0.670677 0.693061 0.377116
155 3 0.677728 0.70075 0.300232
156 4 0.622882 0.71433 0.383522
157 1 0.682471 0.623029 0.275759
158 3 0.621218 0.570468 0.289838
159 4 0.727436 0.598577 0.273462
160 1 0.577782 0.573158 0.217214
161 3 0.601163 0.573085 0.143541
162 4 0.534112 0.602396 0.21782
163 1 0.581247 0.494188 0.122789
164 3 0.520703 0.441893 0.14713
165 4 0.631416 0.475849 0.114562
166 1 0.4899 0.422408 0.0736418
167 3 0.516235 0.375966 0.0124149
168 4 0.452978 0.447229 0.0478277
169 1 0.514405 0.304574 0.0479264
170 3 0.505711 0.279573 0.123708
171 4 0.560485 0.300884 0.0256535
172 1 0.518563 0.200635 0.112711
173 3 0.602053 0.18557 0.131424
174 4 0.507655 0.156031 0.089996
175 1 0.604624 0.205577 0.20887
176 3 0.683953 0.232927 0.201889
177 4 0.622431 0.16009 0.216571
178 1 0.669308 0.304878 0.163545
179 3 0.719659 0.357167 0.194568
180 4 0.647908 0.333211 0.128875
181 1 0.703408 0.347351 0.274088
182 3 0.740133 0.282734 0.30333
183 4 0.663775 0.359337 0.305609
184 1 0.816616 0.313609 0.329577
185 3 0.863966 0.248005 0.319966
186 4 0.844789 0.280332 0.300784
ITEM: TIMESTEP
2000
ITEM: NUMBER OF ATOMS
186
ITEM: BOX BOUNDS ss ss ss
3.259 31.582
1.162 31.523
5.041 35.923
ITEM: ATOMS id type xs ys zs
1 1 0.334106 0.239256 0.157495
2 3 0.328127 0.209617 0.230698
3 4 0.322228 0.202695 0.121353
4 1 0.408154 0.17378 0.237154
5 3 0.474696 0.224046 0.235584
6 4 0.425979 0.128513 0.222215
7 1 0.485727 0.238534 0.314157
8 3 0.516188 0.191237 0.368709
9 4 0.454205 0.272743 0.338846
10 1 0.591579 0.22444 0.390333
11 3 0.572378 0.271974 0.446958
12 4 0.6409 0.240916 0.375925
13 1 0.564273 0.221274 0.509737
14 3 0.603726 0.225147 0.576193
15 4 0.523754 0.19182 0.522173
16 1 0.682916 0.194533 0.555519
17 3 0.709426 0.269926 0.555365
18 4 0.720952 0.166821 0.535509
19 1 0.74475 0.27339 0.628607
20 3 0.825255 0.257491 0.64857
21 4 0.734115 0.27408 0.677155
22 1 0.865701 0.315727 0.604211
23 3 0.87771 0.266914 0.543566
24 4 0.891333 0.324688 0.64849
25 1 0.95199 0.227583 0.567315
26 3 0.959007 0.171698 0.621522
27 4 1.00503 0.236203 0.566375
28 1 0.889726 0.124643 0.602976
29 3 0.883931 0.0956625 0.532292
30 4 0.84901 0.133482 0.634968
31 1 0.84374 0.0252323 0.545387
32 3 0.765601 0.0602938 0.535263
33 4 0.831701 -0.0158917 0.57159
34 1 0.762881 0.0611253 0.455558
35 3 0.701243 0.00597859 0.455626
36 4 0.779037 0.0570116 0.406732
37 1 0.632631 0.0551386 0.465105
38 3 0.609266 0.116906 0.422863
39 4 0.615102 0.0543363 0.512264
40 1 0.532068 0.0922069 0.393432
41 3 0.460606 0.0680179 0.430968
42 4 0.534736 0.072179 0.346561
43 1 0.407131 0.13016 0.409987
44 3 0.382922 0.152469 0.337383
45 4 0.399428 0.174393 0.43585
46 1 0.299957 0.12251 0.338408
47 3 0.271649 0.183884 0.377767
48 4 0.259681 0.088495 0.343592
49 1 0.24837 0.234517 0.315078
50 3 0.176037 0.196793 0.298245
51 4 0.265431 0.259724 0.274142
52 1 0.116991 0.255796 0.315024
53 3 0.128047 0.28695 0.242588
54 4 0.090889 0.285928 0.34528
55 1 0.0515641 0.259009 0.210876
56 3 0.0268597 0.336693 0.211081
57 4 -0.00156971 0.238673 0.209558
58 1 0.0729959 0.362047 0.145679
59 3 0.132625 0.419022 0.142431
60 5 0.0428599 0.328931 0.122102
61 1 0.188434 0.387642 0.200107
62 3 0.248858 0.344658 0.165851
63 4 0.19907 0.373653 0.245819
64 1 0.286881 0.397928 0.116379
65 3 0.372605 0.411906 0.109686
66 4 0.275081 0.422821 0.0710387
67 1 0.388022 0.446187 0.18348
68 3 0.390333 0.407768 0.251476
69 4 0.38659 0.495556 0.188964
70 1 0.479714 0.41735 0.264234
71 3 0.532948 0.477512 0.257198
72 4 0.512015 0.378614 0.251964
73 1 0.548409 0.491982 0.337427
74 3 0.598151 0.45011 0.38583
75 4 0.513827 0.517128 0.367843
76 1 0.668814 0.501864 0.389518
77 3 0.687209 0.580777 0.394907
78 4 0.709149 0.485372 0.362567
79 1 0.67637 0.588496 0.47643
80 3 0.737745 0.552954 0.516204
81 4 0.634659 0.594296 0.50781
82 1 0.79057 0.616843 0.535179
83 3 0.782915 0.692784 0.554576
84 4 0.832364 0.603943 0.50669
85 1 0.818281 0.689021 0.628366
86 3 0.867803 0.644425 0.674181
87 4 0.771372 0.711135 0.647096
88 1 0.896245 0.704635 0.724953
89 3 0.868161 0.766781 0.770487
90 4 0.94571 0.717241 0.721437
91 1 0.866098 0.721847 0.841436
92 3 0.94773 0.724636 0.862659
93 4 0.818955 0.705346 0.856384
94 1 0.942895 0.707195 0.941651
95 3 0.983869 0.646882 0.971998
96 4 0.932214 0.727105 0.987115
97 1 0.942973 0.584385 0.935453
98 3 0.996232 0.539785 0.894766
99 4 0.896482 0.564571 0.941688
100 1 0.994009 0.579085 0.823366
101 3 0.922168 0.589392 0.781208
102 5 0.941566 0.591264 0.819622
103 1 0.952741 0.561277 0.709023
104 3 0.913475 0.489526 0.710955
105 4 0.989634 0.551734 0.674377
106 1 0.833001 0.516775 0.683589
107 3 0.808884 0.542249 0.614601
108 4 0.792582 0.53557 0.713202
109 1 0.780512 0.47294 0.57722
110 3 0.723112 0.421126 0.608671
111 4 0.814244 0.447136 0.54937
112 1 0.650353 0.449815 0.573165
113 3 0.630447 0.466712 0.499503
114 4 0.619567 0.483614 0.59642
115 1 0.589205 0.39558 0.479506
116 3 0.517904 0.361218 0.511539
117 4 0.617528 0.354085 0.46043
118 1 0.463444 0.377327 0.449037
119 3 0.453822 0.384837 0.371733
120 5 0.429293 0.414136 0.441311
121 1 0.366189 0.388887 0.367056
122 3 0.320932 0.453895 0.391505
123 4 0.321043 0.360145 0.369221
124 1 0.3294 0.498575 0.324033
125 3 0.404935 0.533675 0.341844
126 5 0.350795 0.49359 0.279094
127 1 0.389278 0.606487 0.303835
128 3 0.342129 0.660479 0.335926
129 4 0.390979 0.624999 0.260368
130 1 0.379237 0.676587 0.407025
131 3 0.426324 0.733698 0.369617
132 4 0.396301 0.658877 0.446943
133 1 0.396179 0.800968 0.406536
134 3 0.467367 0.790175 0.451946
135 4 0.364971 0.83161 0.433195
136 1 0.521805 0.840564 0.413324
137 3 0.511754 0.906409 0.452229
138 4 0.540982 0.869632 0.373517
139 1 0.545612 0.886321 0.527023
140 3 0.629318 0.891024 0.514734
141 4 0.535566 0.85591 0.56612
142 1 0.642913 0.967933 0.544661
143 3 0.670519 0.934436 0.611825
144 4 0.632681 1.0117 0.569312
145 1 0.751637 0.912981 0.583053
146 3 0.775435 0.835077 0.58509
147 5 0.700569 0.903147 0.589976
148 1 0.715377 0.802025 0.541175
149 3 0.725702 0.821459 0.466364
150 4 0.666256 0.781848 0.54964
151 1 0.763775 0.748926 0.44171
152 3 0.732837 0.674062 0.43703
153 4 0.816981 0.732576 0.442486
154 1 0.673047 0.688771 0.377355
155 3 0.685844 0.702677 0.301632
156 4 0.623568 0.71026 0.382238
157 1 0.679634 0.623414 0.276459
158 3 0.625021 0.565676 0.289224
159 4 0.726654 0.596675 0.268848
160 1 0.57911 0.566691 0.221427
161 3 0.58705 0.569102 0.142795
162 4 0.532297 0.592522 0.227286
163 1 0.576335 0.489783 0.125604
164 3 0.522809 0.43288 0.149745
165 4 0.625039 0.473877 0.117298
166 1 0.480802 0.418057 0.0789341
167 3 0.51313 0.371353 0.0237885
168 4 0.444956 0.441081 0.0490063
169 1 0.504417 0.298165 0.0587858
170 3 0.497995 0.273572 0.130714
171 4 0.550677 0.297474 0.0276761
172 1 0.522056 0.194516 0.125307
173 3 0.604036 0.181645 0.130646
174 4 0.51269 0.150239 0.10198
175 1 0.619418 0.201682 0.207973
176 3 0.695428 0.22871 0.192757
177 4 0.640496 0.156546 0.211712
178 1 0.674985 0.30326 0.161951
179 3 0.734982 0.3481 0.198926
180 4 0.649844 0.333816 0.130239
181 1 0.700411 0.348826 0.273202
182 3 0.723128 0.28216 0.306609
183 4 0.661472 0.36606 0.303308
184 1 0.811743 0.298325 0.316558
185 3 0.8937 0.276576 0.307342
186 4 0.815442 0.258207 0.285265
ITEM: TIMESTEP
3000
ITEM: NUMBER OF ATOMS
186
ITEM: BOX BOUNDS ss ss ss
3.259 31.582
1.162 31.523
5.041 35.923
ITEM: ATOMS id type xs ys zs
1 1 0.323001 0.207794 0.16557
2 3 0.339791 0.161348 0.228168
3 4 0.287551 0.17304 0.144014
4 1 0.427673 0.164517 0.226137
5 3 0.480528 0.224739 0.23119
6 4 0.453751 0.126412 0.206908
7 1 0.489357 0.234678 0.308991
8 3 0.515144 0.192599 0.370507
9 4 0.451268 0.261708 0.334574
10 1 0.5965 0.220423 0.383149
11 3 0.574076 0.277232 0.433173
12 4 0.646266 0.23515 0.372485
13 1 0.566861 0.232512 0.50176
14 3 0.598383 0.181746 0.553177
15 4 0.516571 0.216379 0.516058
16 1 0.681143 0.208952 0.559216
17 3 0.709222 0.285268 0.55913
18 4 0.719659 0.184837 0.537989
19 1 0.739937 0.285687 0.636959
20 3 0.821095 0.261777 0.647348
21 4 0.726963 0.280853 0.688341
22 1 0.863278 0.324327 0.612251
23 3 0.880025 0.278222 0.553553
24 4 0.882315 0.328493 0.657414
25 1 0.947975 0.234272 0.577583
26 3 0.959956 0.167876 0.619934
27 4 0.999682 0.240332 0.57885
28 1 0.880944 0.133014 0.622072
29 3 0.877885 0.103846 0.550287
30 4 0.84058 0.144373 0.650899
31 1 0.840335 0.0297426 0.560921
32 3 0.769633 0.0693586 0.549742
33 4 0.829085 -0.0116784 0.587314
34 1 0.761306 0.0639979 0.469672
35 3 0.699054 0.0099186 0.471711
36 4 0.777812 0.0589903 0.422373
37 1 0.627969 0.0582871 0.482806
38 3 0.609766 0.111603 0.429015
39 4 0.608142 0.0660807 0.526579
40 1 0.530175 0.088924 0.405471
41 3 0.460282 0.0668189 0.445008
42 4 0.531698 0.0650658 0.360417
43 1 0.404731 0.125518 0.416271
44 3 0.381021 0.151304 0.347087
45 4 0.397823 0.161963 0.448187
46 1 0.302436 0.11885 0.339075
47 3 0.259909 0.171122 0.383283
48 4 0.272175 0.0774362 0.338821
49 1 0.246823 0.229615 0.325208
50 3 0.174165 0.191086 0.310519
51 4 0.268087 0.259349 0.289012
52 1 0.118295 0.254623 0.318008
53 3 0.129121 0.281967 0.244921
54 4 0.0940187 0.292361 0.34517
55 1 0.0555004 0.250106 0.212494
56 3 0.0266818 0.325275 0.203294
57 4 0.00178432 0.232094 0.206441
58 1 0.0781462 0.345748 0.140238
59 3 0.14214 0.394939 0.128376
60 5 0.117122 0.357405 0.172055
61 1 0.193099 0.37862 0.191638
62 3 0.247087 0.332979 0.150884
63 4 0.202866 0.369933 0.239359
64 1 0.292453 0.390258 0.110944
65 3 0.372209 0.412602 0.105254
66 4 0.277721 0.414031 0.0672728
67 1 0.390789 0.43809 0.178501
68 3 0.397559 0.3963 0.245267
69 4 0.382033 0.48892 0.192434
70 1 0.48156 0.407669 0.262106
71 3 0.528526 0.473459 0.255829
72 4 0.514997 0.369633 0.252889
73 1 0.549423 0.489803 0.330581
74 3 0.595267 0.451122 0.38193
75 4 0.518121 0.517896 0.362239
76 1 0.666945 0.497331 0.385389
77 3 0.682171 0.576025 0.390534
78 4 0.710563 0.486414 0.35574
79 1 0.682078 0.585241 0.471834
80 3 0.74331 0.549948 0.518095
81 4 0.63938 0.593647 0.502901
82 1 0.795347 0.618041 0.525633
83 3 0.782707 0.694356 0.544156
84 4 0.838971 0.608308 0.498126
85 1 0.826209 0.696086 0.616064
86 3 0.86307 0.647839 0.665071
87 4 0.775776 0.714939 0.630048
88 1 0.899648 0.700457 0.719288
89 3 0.846865 0.742539 0.766324
90 4 0.945094 0.7298 0.714287
91 1 0.867032 0.712038 0.838513
92 3 0.939484 0.679397 0.867178
93 4 0.824645 0.683446 0.85991
94 1 0.941071 0.714478 0.938975
95 3 0.924694 0.651595 0.977284
96 4 0.933851 0.747339 0.974118
97 1 0.945873 0.589721 0.927723
98 3 0.996211 0.538169 0.893144
99 4 0.897031 0.571471 0.937678
100 1 0.994453 0.572972 0.819307
101 3 0.92992 0.597069 0.77659
102 5 1.00423 0.588417 0.772653
103 1 0.953536 0.568219 0.703811
104 3 0.909095 0.499902 0.719865
105 4 0.99058 0.559488 0.668262
106 1 0.832562 0.51898 0.680904
107 3 0.81483 0.542576 0.605608
108 4 0.794467 0.543347 0.705239
109 1 0.786134 0.472889 0.576989
110 3 0.732567 0.40955 0.583142
111 4 0.819429 0.449581 0.543763
112 1 0.655605 0.44998 0.564959
113 3 0.629281 0.466039 0.494462
114 4 0.625781 0.486328 0.587824
115 1 0.599098 0.390539 0.47265
116 3 0.52764 0.370396 0.511957
117 4 0.628156 0.353889 0.449695
118 1 0.470617 0.369128 0.449191
119 3 0.456564 0.395884 0.378743
120 5 0.503246 0.395267 0.477174
121 1 0.370803 0.379519 0.367087
122 3 0.33475 0.44863 0.392101
123 4 0.326146 0.353753 0.377542
124 1 0.326685 0.487431 0.321094
125 3 0.397032 0.524256 0.34054
126 5 0.288057 0.50867 0.348762
127 1 0.380766 0.600778 0.308493
128 3 0.330484 0.657438 0.339093
129 4 0.379307 0.621144 0.264969
130 1 0.371692 0.669998 0.410995
131 3 0.415297 0.727459 0.371501
132 4 0.393701 0.651162 0.450485
133 1 0.382546 0.792607 0.411978
134 3 0.452964 0.789167 0.456224
135 4 0.350379 0.82101 0.4418
136 1 0.504504 0.844335 0.416474
137 3 0.493327 0.905554 0.457379
138 4 0.528944 0.863156 0.378794
139 1 0.534595 0.885889 0.524376
140 3 0.616152 0.898141 0.506377
141 4 0.523646 0.855327 0.564215
142 1 0.629629 0.967434 0.550683
143 3 0.659599 0.938747 0.618218
144 4 0.619775 1.01286 0.571329
145 1 0.739113 0.910973 0.592523
146 3 0.771005 0.837847 0.585261
147 5 0.782155 0.913996 0.621552
148 1 0.710958 0.80363 0.537684
149 3 0.706395 0.81788 0.458908
150 4 0.662065 0.782238 0.548131
151 1 0.758821 0.754461 0.436727
152 3 0.723972 0.682359 0.432996
153 4 0.811378 0.735561 0.437572
154 1 0.664857 0.69124 0.377098
155 3 0.677208 0.705804 0.300097
156 4 0.615663 0.711239 0.388418
157 1 0.670494 0.624374 0.275897
158 3 0.605314 0.576544 0.28449
159 4 0.714059 0.594573 0.269614
160 1 0.573025 0.574492 0.211233
161 3 0.600579 0.57166 0.137033
162 4 0.52933 0.604835 0.209676
163 1 0.57592 0.495287 0.119682
164 3 0.514066 0.443058 0.135467
165 4 0.626302 0.474245 0.119364
166 1 0.482749 0.429811 0.0620451
167 3 0.507534 0.385342 0.00575322
168 4 0.444226 0.454412 0.0355256
169 1 0.514769 0.311805 0.0440695
170 3 0.51451 0.286506 0.118266
171 4 0.562177 0.309042 0.018427
172 1 0.523503 0.204837 0.104343
173 3 0.606174 0.207861 0.119673
174 4 0.514981 0.15971 0.0821264
175 1 0.604534 0.201116 0.200028
176 3 0.681113 0.23648 0.195048
177 4 0.629955 0.156173 0.199838
178 1 0.657707 0.30501 0.156946
179 3 0.720433 0.344248 0.186078
180 4 0.624347 0.33711 0.135209
181 1 0.698314 0.348101 0.264544
182 3 0.740624 0.291168 0.30359
183 4 0.661445 0.355238 0.296031
184 1 0.823611 0.311905 0.288559
185 3 0.87088 0.24659 0.277754
186 4 0.814725 0.26079 0.286538
