LAMMPS protain data file

         492  atoms
         654  bonds
           0  angles
           0  dihedrals
           0  impropers

           5  atom types
           5  bond types
           0  angle types
           0  dihedral types
           0  improper types

-200.0	200.0	xlo xhi
-200.0	200.0	ylo yhi
-200.0	200.0	zlo zhi

Masses

           1	27.0
           2	14.0
           3	28.0
           4	60.0
           5	60.0

Atoms

           1	1	1	1	0.0	43.86199951	-1.87699997	8.85099983
           2	1	1	3	0.0	41.72000122	-2.92499995	9.11999989
           3	1	1	4	0.0	43.91400146	-1.17799997	7.47300005
           4	1	2	1	0.0	40.83200073	-0.85799998	10.82699966
           5	1	2	3	0.0	41.14099884	1.47000003	10.47299957
           6	1	2	4	0.0	40.83300018	-1.57500005	12.20699978
           7	1	3	1	0.0	38.58200073	2.2349999	11.28499985
           8	1	3	3	0.0	39.60499954	4.45200014	11.69499969
           9	1	3	4	0.0	37.07799911	2.22799993	11.64099979
          10	1	4	1	0.0	40.76800156	3.7190001	13.98799992
          11	1	4	3	0.0	42.51900101	5.26900005	13.42199993
          12	1	4	4	0.0	41.02700043	3.09200001	15.38799953
          13	1	5	1	0.0	44.02799988	3.4749999	12.03199959
          14	1	5	3	0.0	44.57500076	5.23999977	10.54399967
          15	1	5	4	0.0	44.7159996	2.18400002	11.59599972
          16	1	6	1	0.0	42.29199982	4.85099983	9.00199986
          17	1	6	3	0.0	42.45100021	7.2249999	8.7159996
          18	1	6	4	0.0	40.9679985	4.29400015	8.42700005
          19	1	7	1	0.0	40.97800064	7.91900015	10.80000019
          20	1	7	3	0.0	42.39199829	9.76900005	11.37300014
          21	1	7	4	0.0	39.7820015	8.11999989	11.69099998
          22	1	8	1	0.0	44.25600052	8.4090004	12.58699989
          23	1	8	3	0.0	45.74399948	10.00300026	11.55000019
          24	1	8	4	0.0	44.95999908	7.50600004	13.57699966
          25	1	9	1	0.0	45.85400009	8.72099972	9.125
          26	1	9	3	0.0	45.90399933	10.98499966	8.34700012
          27	1	9	4	0.0	46.01800156	7.60599995	8.0909996
          28	1	10	1	0.0	43.20600128	11.13399982	7.90199995
          29	1	10	3	0.0	43.16999817	13.48400021	8.29100037
          30	1	10	4	0.0	41.75600052	10.67700005	7.6079998
          31	1	11	1	0.0	42.9679985	13.42399979	10.92399979
          32	1	11	3	0.0	44.33599854	15.01399994	12.03800011
          33	1	11	4	0.0	41.88299942	13.14400005	11.98999977
          34	1	12	1	0.0	46.34500122	13.32499981	12.61900043
          35	1	12	3	0.0	45.01300049	12.88300037	14.55099964
          36	1	12	5	0.0	45.14400101	12.8502565	11.58347836
          37	1	13	1	0.0	46.9679985	13.57999992	16.41699982
          38	1	13	3	0.0	48.82099915	14.96000004	16.59499931
          39	1	13	4	0.0	47.86299896	12.51799965	17.02499962
          40	1	14	1	0.0	47.40599823	17.02300072	17.95800018
          41	1	14	3	0.0	45.81600189	17.0529995	19.70999908
          42	1	14	4	0.0	47.02099991	18.18300056	17.03300095
          43	1	15	1	0.0	47.7179985	17.49399948	21.72900009
          44	1	15	3	0.0	47.15599823	19.0340004	23.43000031
          45	1	15	4	0.0	48.81399918	16.85700035	22.56200027
          46	1	16	1	0.0	47.14400101	21.22400093	21.61100006
          47	1	16	3	0.0	46.00899887	21.32099915	19.55500031
          48	1	16	4	0.0	48.37099838	22.10899925	21.45899963
          49	1	17	1	0.0	44.12400055	23.32999992	20.37700081
          50	1	17	3	0.0	45.68799973	24.4470005	19.0189991
          51	1	17	4	0.0	43.29600143	24.44300079	21.04400063
          52	1	18	1	0.0	44.60499954	23.77199936	16.69799995
          53	1	18	3	0.0	42.31600189	23.96699905	16.23999977
          54	1	18	4	0.0	45.54000092	22.79999924	15.96500015
          55	1	19	1	0.0	42.61600113	24.98600006	13.93000031
          56	1	19	3	0.0	43.58100128	23.69499969	12.20499992
          57	1	19	4	0.0	42.62599945	26.39100075	13.38700008
          58	1	20	1	0.0	41.15299988	22.72500038	11.36900043
          59	1	20	3	0.0	41.88899994	24.53700066	9.99699974
          60	1	20	4	0.0	39.94800186	21.77199936	11.49600029
          61	1	21	1	0.0	41.25099945	23.27000046	7.61800003
          62	1	21	3	0.0	40.5320015	25.18700027	6.44399977
          63	1	21	4	0.0	41.11800003	22.19199944	6.53399992
          64	1	22	1	0.0	37.93500137	25.11899948	7.88899994
          65	1	22	3	0.0	37.02600098	27.16300011	8.68599987
          66	1	22	4	0.0	36.68399811	24.33200073	8.26500034
          67	1	23	1	0.0	39.13700104	27.50399971	10.53299999
          68	1	23	3	0.0	38.93700027	27.93700027	12.84700012
          69	1	23	5	0.0	38.97399902	26.99167099	9.86896477
          70	1	24	1	0.0	37.75500107	25.75499916	13.57299995
          71	1	24	3	0.0	39.51900101	24.1970005	14.20499992
          72	1	24	4	0.0	36.46500015	25.07500076	13.73799992
          73	1	25	1	0.0	39.01300049	24.88400078	16.92200089
          74	1	25	3	0.0	37.61000061	22.91500092	17.30800056
          75	1	25	4	0.0	38.56399918	25.77700043	18.07999992
          76	1	26	1	0.0	39.84700012	21.18300056	17.1060009
          77	1	26	3	0.0	41.89699936	21.5890007	18.32699966
          78	1	26	4	0.0	40.07099915	20.71299934	15.60599995
          79	1	27	1	0.0	41.93099976	19.01399994	19.40200043
          80	1	27	3	0.0	41.06800079	16.90600014	18.59900093
          81	1	27	4	0.0	41.83300018	19.41799927	20.8560009
          82	1	28	1	0.0	43.26399994	15.38300037	19.45700073
          83	1	28	3	0.0	43.95100021	15.31200027	17.18499947
          84	1	28	5	0.0	43.08100128	13.3693491	19.00444054
          85	1	29	1	0.0	42.18099976	13.22900009	16.52599907
          86	1	29	3	0.0	39.97399902	12.87800026	15.7510004
          87	1	29	4	0.0	42.25799942	11.68900013	16.61300087
          88	1	30	1	0.0	39.81100082	15.46500015	14.58899975
          89	1	30	3	0.0	37.45999908	15.77299976	14.96700001
          90	1	30	5	0.0	40.94499969	14.83491743	12.44004831
          91	1	31	1	0.0	37.72499847	16.29100037	17.64900017
          92	1	31	3	0.0	37.95600128	18.58300018	18.27599907
          93	1	31	4	0.0	38.01900101	15.91300011	19.13100052
          94	1	32	1	0.0	35.93700027	19.56900024	16.77599907
          95	1	32	3	0.0	34.6590004	19.54800034	18.80599976
          96	1	32	4	0.0	34.7820015	19.79400063	15.81799984
          97	1	33	1	0.0	35.55199814	21.75200081	19.79800034
          98	1	33	3	0.0	33.38899994	22.67499924	20.3010006
          99	1	33	4	0.0	36.69300079	22.34799957	20.60899925
         100	1	34	1	0.0	33.60300064	24.76000023	18.52700043
         101	1	34	3	0.0	34.76100159	25.30699921	16.53199959
         102	1	34	4	0.0	33.67900085	25.9109993	19.60199928
         103	1	35	1	0.0	32.76300049	26.62100029	15.37899971
         104	1	35	3	0.0	33.06999969	28.91799927	14.82999992
         105	1	35	4	0.0	31.54199982	26.44599915	14.49300003
         106	1	36	1	0.0	32.99599838	29.81900024	17.48800087
         107	1	36	3	0.0	35.38899994	29.68600082	17.56100082
         108	1	36	4	0.0	32.44499969	30.10300064	18.88899994
         109	1	37	1	0.0	35.70899963	32.29100037	16.87400055
         110	1	37	3	0.0	37.68600082	32.8219986	18.06999969
         111	1	37	4	0.0	35.41799927	33.65299988	16.25499916
         112	1	38	1	0.0	36.7120018	32.41999817	20.45400047
         113	1	38	3	0.0	37.11700058	30.27599907	21.41500092
         114	1	38	4	0.0	35.79299927	32.94900131	21.5529995
         115	1	39	1	0.0	39.75999832	30.6439991	21.6420002
         116	1	39	3	0.0	39.49499893	29.34399986	23.68300056
         117	1	39	4	0.0	41.22399902	31.14100075	21.52899933
         118	1	40	1	0.0	38.23699951	31.23200035	24.97699928
         119	1	40	3	0.0	36.89500046	29.43600082	25.88199997
         120	1	40	4	0.0	38.20999908	32.49499893	25.87199974
         121	1	41	1	0.0	35.05099869	29.47500038	23.96999931
         122	1	41	3	0.0	35.16199875	27.11899948	24.45000076
         123	1	41	4	0.0	34.16799927	29.78199959	22.77700043
         124	1	42	1	0.0	37.24399948	26.59300041	22.67099953
         125	1	42	3	0.0	37.57799911	24.74500084	24.18099976
         126	1	42	4	0.0	38.29700089	26.64999962	21.55400085
         127	1	43	1	0.0	39.13600159	26.21699905	25.91900063
         128	1	43	3	0.0	38.27399826	24.98900032	27.81500053
         129	1	43	4	0.0	39.97700119	27.33799934	26.45800018
         130	1	44	1	0.0	35.88399887	26.15500069	27.80200005
         131	1	44	3	0.0	34.8219986	23.96999931	28.16399956
         132	1	44	4	0.0	34.9620018	27.36199951	27.94499969
         133	1	45	1	0.0	34.44900131	23.40299988	25.62299919
         134	1	45	3	0.0	35.02000046	21.12000084	26.33600044
         135	1	45	4	0.0	34.34400177	23.56500053	24.1060009
         136	1	46	1	0.0	37.6629982	21.48699951	26.08499908
         137	1	46	3	0.0	37.55899811	19.78199959	27.7689991
         138	1	46	4	0.0	39.10300064	21.94400024	25.79000092
         139	1	47	1	0.0	37.49300003	21.55500031	29.88199997
         140	1	47	3	0.0	36.35699844	19.84799957	31.05999947
         141	1	47	4	0.0	37.4640007	22.79400063	30.76199913
         142	1	48	1	0.0	33.86800003	20.52700043	29.64800072
         143	1	48	3	0.0	33.54100037	18.16500092	29.71500015
         144	1	48	4	0.0	32.83599854	21.38800049	28.91799927
         145	1	49	1	0.0	34.74599838	17.63500023	27.30999947
         146	1	49	3	0.0	35.38399887	15.45300007	28.17499924
         147	1	49	4	0.0	35.13299942	17.72500038	25.83300018
         148	1	50	1	0.0	37.70899963	16.44499969	29.51000023
         149	1	50	3	0.0	37.7120018	15.23999977	31.61300087
         150	1	50	4	0.0	39.17499924	16.95800018	29.30999947
         151	1	51	1	0.0	36.29999924	17.12199974	32.98799896
         152	1	51	3	0.0	37.54600143	17.37599945	35.01900101
         153	1	51	5	0.0	36.65299988	15.62190582	31.69009413
         154	1	52	1	0.0	39.49499893	18.94000053	33.98799896
         155	1	52	3	0.0	39.42900085	20.60099983	32.3370018
         156	1	52	4	0.0	40.67399979	17.96899986	34.0870018
         157	1	53	1	0.0	41.18799973	22.30200005	33.56700134
         158	1	53	3	0.0	43.37099838	21.55400085	33.3409996
         159	1	53	4	0.0	41.58200073	23.3409996	34.61299896
         160	1	54	1	0.0	43.28900146	21.64699936	30.56599998
         161	1	54	3	0.0	45.29299927	22.56599998	29.65699959
         162	1	54	4	0.0	42.59000015	20.94199944	29.39299965
         163	1	55	1	0.0	44.15399933	25.06699944	29.36599922
         164	1	55	3	0.0	45.88899994	24.84000015	27.75799942
         165	1	55	4	0.0	45.2840004	25.50900078	30.3409996
         166	1	56	1	0.0	44.31200027	23.96100044	25.75900078
         167	1	56	3	0.0	45.7879982	22.47500038	24.61000061
         168	1	56	5	0.0	43.84400177	22.89021072	22.91125848
         169	1	57	1	0.0	46.33399963	20.91699982	26.43499947
         170	1	57	3	0.0	45.56499863	19.49900055	28.14599991
         171	1	57	4	0.0	47.70199966	21.24200058	27.01000023
         172	1	58	1	0.0	45.65599823	17.27300072	26.68700027
         173	1	58	3	0.0	47.66199875	16.40200043	25.75200081
         174	1	58	4	0.0	44.31600189	16.82500076	26.08799934
         175	1	59	1	0.0	47.44300079	14.00399971	27.12199974
         176	1	59	3	0.0	45.86800003	13.14000034	25.51099968
         177	1	59	4	0.0	47.52099991	13.22700024	28.4489994
         178	1	60	1	0.0	47.60699844	11.29699993	24.47999954
         179	1	60	3	0.0	45.58200073	10.02400017	23.9489994
         180	1	60	4	0.0	48.88000107	10.54100037	24.17499924
         181	1	61	1	0.0	45.36100006	9.22099972	26.63699913
         182	1	61	3	0.0	42.99200058	9.16100025	26.27099991
         183	1	61	4	0.0	45.70999908	8.86999989	28.07999992
         184	1	62	1	0.0	42.70700073	11.94900036	26.66500092
         185	1	62	3	0.0	41.02500153	11.94900036	24.99600029
         186	1	62	4	0.0	42.86000061	13.3039999	27.33200073
         187	1	63	1	0.0	42.875	12.22900009	22.82799911
         188	1	63	3	0.0	41.25400162	11.02400017	21.53800011
         189	1	63	4	0.0	44.10300064	12.5340004	21.98699951
         190	1	64	1	0.0	42.19599915	8.47399998	22.55599976
         191	1	64	3	0.0	40.02899933	7.54899979	22.44599915
         192	1	64	4	0.0	43.15200043	7.35400009	22.98500061
         193	1	65	1	0.0	39.28699875	8.56799984	24.94400024
         194	1	65	3	0.0	37.23300171	8.7489996	23.70000076
         195	1	65	4	0.0	39.32099915	9.19200039	26.31200027
         196	1	66	1	0.0	37.73199844	11.36400032	22.86899948
         197	1	66	3	0.0	36.29899979	10.63300037	21.05200005
         198	1	66	4	0.0	38.30199814	12.79199982	22.59700012
         199	1	67	1	0.0	38.4659996	9.35299969	19.6989994
         200	1	67	3	0.0	36.67100143	7.90100002	18.91699982
         201	1	67	4	0.0	39.90499878	8.96000004	19.3579998
         202	1	68	1	0.0	36.79999924	6.22800016	21.06500053
         203	1	68	3	0.0	34.44400024	6.07299995	20.48999977
         204	1	68	4	0.0	37.1780014	5.51200008	22.39500046
         205	1	69	1	0.0	33.75899887	8.33600044	21.90999985
         206	1	69	3	0.0	31.94199944	8.56599998	20.40999985
         207	1	69	4	0.0	33.6629982	9.55799961	22.84900093
         208	1	70	1	0.0	33.61999893	9.94299984	18.47800064
         209	1	70	3	0.0	32.34899902	9.0369997	16.65299988
         210	1	70	4	0.0	34.59000015	11.01599979	17.87100029
         211	1	71	1	0.0	33.88899994	6.71600008	16.52700043
         212	1	71	3	0.0	31.75900078	5.73899984	15.98700047
         213	1	71	4	0.0	35.11999893	5.76900005	16.3920002
         214	1	72	1	0.0	31.15699959	5.12099981	18.6439991
         215	1	72	3	0.0	28.87700081	5.3920002	17.83399963
         216	1	72	4	0.0	31.28199959	4.91300011	20.16799927
         217	1	73	1	0.0	28.83600044	8.09399986	18.24500084
         218	1	73	3	0.0	27.4109993	8.16499996	16.3390007
         219	1	73	4	0.0	29.10700035	9.53899956	18.59700012
         220	1	74	1	0.0	29.45800018	7.90999985	14.44999981
         221	1	74	3	0.0	27.75600052	6.67299986	13.25
         222	1	74	4	0.0	30.81699944	8.03600025	13.76000023
         223	1	75	1	0.0	28.53199959	4.2329998	14.30300045
         224	1	75	3	0.0	26.1590004	3.88199997	14.08600044
         225	1	75	4	0.0	29.3029995	3.04699993	14.89400005
         226	1	76	1	0.0	25.42900085	4.58199978	16.52799988
         227	1	76	3	0.0	23.47500038	5.21899986	15.37300014
         228	1	76	4	0.0	25.30800056	4.94299984	17.97599983
         229	1	77	1	0.0	24.43000031	7.61299992	14.49499989
         230	1	77	3	0.0	22.83200073	7.3039999	12.69400024
         231	1	77	5	0.0	25.17200089	8.36207408	13.64643156
         232	1	78	1	0.0	24.48999977	5.76300001	11.1789999
         233	1	78	3	0.0	22.4659996	4.62400007	10.52000046
         234	1	78	4	0.0	25.70100021	5.01000023	10.54899979
         235	1	79	1	0.0	22.45999908	2.87899995	12.70100021
         236	1	79	3	0.0	20.11800003	2.51999998	13.07499981
         237	1	79	4	0.0	23.03800011	1.74000001	13.56000042
         238	1	80	1	0.0	19.7689991	5.18300009	14.07299995
         239	1	80	3	0.0	18.27700043	6.74800014	13.04800034
         240	1	80	4	0.0	20.01199913	6.05299997	15.33199978
         241	1	81	1	0.0	19.56399918	7.09600019	10.87300014
         242	1	81	3	0.0	19.38899994	5.36800003	9.18900013
         243	1	81	4	0.0	20.62700081	8.13000011	10.53800011
         244	1	82	1	0.0	16.88100052	6.17199993	8.30099964
         245	1	82	3	0.0	17.1590004	5.3920002	6.04199982
         246	1	82	4	0.0	15.48799992	6.77600002	8.31299973
         247	1	83	1	0.0	18.87999916	7.31899977	5.37599993
         248	1	83	3	0.0	20.46800041	5.93300009	4.22900009
         249	1	83	4	0.0	19.13100052	8.77900028	5.06099987
         250	1	84	1	0.0	22.25699997	5.91400003	6.37799978
         251	1	84	3	0.0	23.01600075	3.648	6.08599997
         252	1	84	4	0.0	23.14100075	6.67600012	7.40399981
         253	1	85	1	0.0	21.32099915	2.62899995	8.02299976
         254	1	85	3	0.0	21.8939991	0.55299997	6.92299986
         255	1	85	4	0.0	20.25600052	2.39400005	9.09799957
         256	1	86	1	0.0	20.17700005	0.917	4.8499999
         257	1	86	3	0.0	21.67099953	-0.22499999	3.40899992
         258	1	86	4	0.0	18.91399956	1.352	4.09000015
         259	1	87	1	0.0	23.25	1.95299995	2.93799996
         260	1	87	3	0.0	24.98800087	0.27399999	3.11800003
         261	1	87	4	0.0	23.76600075	3.36100006	2.70799994
         262	1	88	1	0.0	25.48200035	0.68800002	5.7670002
         263	1	88	3	0.0	26.16300011	-1.61199999	5.52099991
         264	1	88	4	0.0	25.48999977	1.24000001	7.19500017
         265	1	89	1	0.0	23.60899925	-2.62199998	5.95100021
         266	1	89	3	0.0	24.23399925	-4.48000002	4.579
         267	1	89	4	0.0	22.10199928	-2.79500008	6.18200016
         268	1	90	1	0.0	24.08200073	-3.13400006	2.26999998
         269	1	90	3	0.0	25.8560009	-3.96399999	0.98299998
         270	1	90	4	0.0	23.45299911	-2.36800003	1.125
         271	1	91	1	0.0	27.87400055	-2.68600011	2.36400008
         272	1	91	3	0.0	28.49600029	-4.27199984	4.079
         273	1	91	4	0.0	28.50200081	-1.31500006	2.79399991
         274	1	92	1	0.0	30.90099907	-4.96899986	2.80900002
         275	1	92	3	0.0	31.51000023	-2.9849999	4.10500002
         276	1	92	4	0.0	31.85099983	-5.46500015	1.71000004
         277	1	93	1	0.0	33.24300003	-4.3829999	5.76999998
         278	1	93	3	0.0	34.19800186	-2.28600001	6.35699987
         279	1	93	4	0.0	33.97299957	-5.43200016	6.57399988
         280	1	94	1	0.0	35.74599838	-2.09100008	4.02799988
         281	1	94	3	0.0	35.21300125	0.22400001	4.29899979
         282	1	94	4	0.0	36.84899902	-2.45700002	3.00600004
         283	1	95	1	0.0	33.20600128	0.19	2.42199993
         284	1	95	3	0.0	32.1609993	1.89699996	3.75999999
         285	1	95	4	0.0	32.2879982	-0.18799999	1.28299999
         286	1	96	1	0.0	31.48200035	0.31	5.80900002
         287	1	96	3	0.0	31.85000038	2.28299999	7.11600018
         288	1	96	4	0.0	31.04199982	-0.74599999	6.8210001
         289	1	97	1	0.0	34.63899994	1.93299997	7.20300007
         290	1	97	3	0.0	34.75999832	4.30200005	7.23999977
         291	1	97	4	0.0	36.04199982	1.35300004	7.24100018
         292	1	98	1	0.0	34.52399826	4.53299999	4.46199989
         293	1	98	3	0.0	33.44499969	6.66300011	4.88000011
         294	1	98	4	0.0	34.61700058	4.25600004	2.94099998
         295	1	99	1	0.0	30.96999931	5.67700005	5.34200001
         296	1	99	3	0.0	30.78700066	7.36600018	7.04699993
         297	1	99	4	0.0	29.73800087	4.71400023	5.30800009
         298	1	100	1	0.0	32.02700043	5.73799992	9.01200008
         299	1	100	3	0.0	32.73300171	7.91099977	9.77400017
         300	1	100	4	0.0	32.62200165	4.65899992	9.97099972
         301	1	101	1	0.0	34.90599823	7.99700022	7.99499989
         302	1	101	3	0.0	34.39899826	10.38799953	8.23099995
         303	1	101	4	0.0	35.95800018	7.54899979	6.93100023
         304	1	102	1	0.0	32.61399841	10.4289999	6.17000008
         305	1	102	3	0.0	31.60899925	12.15200043	7.50500011
         306	1	102	4	0.0	31.72100067	10.13300037	4.96899986
         307	1	103	1	0.0	30.24200058	10.5369997	9.08699989
         308	1	103	3	0.0	30.61199951	12.09000015	10.90799999
         309	1	103	4	0.0	29.28199959	9.43299961	9.52600002
         310	1	104	1	0.0	32.91500092	11.14799976	11.64799976
         311	1	104	3	0.0	33.33000183	13.53899956	11.95400047
         312	1	104	4	0.0	34.13999939	10.23700047	11.71500015
         313	1	105	1	0.0	34.16199875	14.03100014	9.53999996
         314	1	105	3	0.0	33.20000076	16.20999908	9.71199989
         315	1	105	4	0.0	34.92300034	13.91100025	8.18599987
         316	1	106	1	0.0	30.99500084	15.57400036	8.34399986
         317	1	106	3	0.0	28.69499969	16.25799942	8.79599953
         318	1	106	4	0.0	31.2310009	15.59500027	6.75500011
         319	1	107	1	0.0	28.1989994	14.46500015	10.57999992
         320	1	107	3	0.0	27.18899918	13.64400005	8.45100021
         321	1	107	5	0.0	29.49900055	13.87680591	11.03024874
         322	1	108	1	0.0	25.15200043	12.33100033	9.84599972
         323	1	108	3	0.0	23.91500092	12.64599991	7.77400017
         324	1	108	4	0.0	24.47900009	11.80900002	11.11900043
         325	1	109	1	0.0	23.24200058	15.25599957	8.49100018
         326	1	109	3	0.0	23.3029995	15.54699993	6.12300014
         327	1	109	4	0.0	22.91500092	16.50200081	9.31599998
         328	1	110	1	0.0	25.97400093	16.13899994	6.02799988
         329	1	110	3	0.0	25.92399979	15.17399979	3.84800005
         330	1	110	5	0.0	25.22500038	16.09372544	5.10544235
         331	1	111	1	0.0	26.43799973	12.64599991	4.68300009
         332	1	111	3	0.0	24.88400078	11.93599987	3.04200006
         333	1	111	4	0.0	27.08600044	11.45899963	5.36499977
         334	1	112	1	0.0	22.70400047	12.12699986	4.63399982
         335	1	112	3	0.0	21.4090004	12.54300022	2.65100002
         336	1	112	4	0.0	21.68799973	12.19999981	5.76999998
         337	1	113	1	0.0	22.67000008	14.97700024	2.1099999
         338	1	113	3	0.0	22.89999962	15.14799976	-0.27700001
         339	1	113	5	0.0	22.94499969	15.12812385	1.76358287
         340	1	114	1	0.0	24.68400002	13.10599995	-0.54100001
         341	1	114	3	0.0	24.125	10.89900017	-1.40600002
         342	1	114	4	0.0	26.11000061	12.55599976	-0.36199999
         343	1	115	1	0.0	21.45700073	11.55599976	-1.80400002
         344	1	115	3	0.0	21.68199921	9.41899967	-2.80699992
         345	1	115	4	0.0	20.18600082	12.36100006	-2.16499996
         346	1	116	1	0.0	22.62000084	10.5	-5.19700003
         347	1	116	3	0.0	23.64699936	8.34599972	-5.60300016
         348	1	116	4	0.0	22.93799973	11.5369997	-6.28599977
         349	1	117	1	0.0	25.89900017	8.92700005	-4.17999983
         350	1	117	3	0.0	26.03100014	6.71099997	-3.39599991
         351	1	117	4	0.0	27.08099937	9.56099987	-3.46399999
         352	1	118	1	0.0	24.1989994	7.00199986	-1.32700002
         353	1	118	3	0.0	23.58099937	4.72200012	-1.88300002
         354	1	118	4	0.0	23.3560009	7.51499987	-0.117
         355	1	119	1	0.0	21.81399918	5.58500004	-3.94099998
         356	1	119	3	0.0	22.47800064	3.53999996	-4.96600008
         357	1	119	4	0.0	20.9109993	6.51599979	-4.75400019
         358	1	120	1	0.0	24.62199974	4.51599979	-6.18900013
         359	1	120	3	0.0	25.69099998	2.4059999	-5.76100016
         360	1	120	4	0.0	25.60199928	5.3499999	-7.03399992
         361	1	121	1	0.0	26.47800064	2.91300011	-3.2349999
         362	1	121	3	0.0	25.99200058	0.54400003	-2.97199988
         363	1	121	4	0.0	27.04000092	3.54500008	-1.94500005
         364	1	122	1	0.0	23.3579998	0.93699998	-2.29399991
         365	1	122	3	0.0	23.0529995	-1.23399997	-3.398
         366	1	122	4	0.0	22.06900024	1.58399999	-1.79999995
         367	1	123	1	0.0	23.17900085	-0.17	-5.875
         368	1	123	3	0.0	24.50300026	-1.39600003	-7.3579998
         369	1	123	4	0.0	22.49799919	0.52600002	-7.04400015
         370	1	124	1	0.0	26.87800026	-1.25300002	-5.89599991
         371	1	124	3	0.0	28.14699936	-1.41600001	-7.90999985
         372	1	124	4	0.0	26.89999962	-2.78699994	-5.78000021
         373	1	125	1	0.0	27.69599915	1.13699996	-8.73499966
         374	1	125	3	0.0	28.82500076	3.21600008	-8.38399982
         375	1	125	4	0.0	26.67499924	1.96300006	-9.43099976
         376	1	126	1	0.0	31.2159996	1.73000002	-7.59499979
         377	1	126	3	0.0	32.08399963	3.98099995	-7.68499994
         378	1	126	4	0.0	32.14799881	0.528	-7.296
         379	1	127	1	0.0	32.59000015	3.84899998	-10.48700047
         380	1	127	3	0.0	32.26800156	6.19999981	-10.43299961
         381	1	127	4	0.0	32.88199997	3.29099989	-11.88000011
         382	1	128	1	0.0	29.53499985	5.98600006	-10.77099991
         383	1	128	3	0.0	29.39500046	7.90899992	-9.40799999
         384	1	128	4	0.0	28.11499977	5.61199999	-11.2329998
         385	1	129	1	0.0	29.42700005	6.63700008	-7.06699991
         386	1	129	3	0.0	30.63899994	8.56999969	-6.31799984
         387	1	129	4	0.0	29.16399956	5.71299982	-5.88700008
         388	1	130	1	0.0	33.16600037	7.59899998	-6.99900007
         389	1	130	3	0.0	33.76800156	9.90999985	-7.30600023
         390	1	130	4	0.0	34.27099991	6.63500023	-7.44299984
         391	1	131	1	0.0	32.55899811	10.0909996	-9.81799984
         392	1	131	3	0.0	31.96999931	12.35400009	-9.20499992
         393	1	131	4	0.0	32.11500168	9.76099968	-11.2510004
         394	1	132	1	0.0	29.56399918	11.69699955	-8.05500031
         395	1	132	3	0.0	29.84700012	13.46899986	-6.375
         396	1	132	4	0.0	28.20800018	10.99100018	-7.84299994
         397	1	133	1	0.0	31.24399948	11.98099995	-4.61800003
         398	1	133	3	0.0	32.35200119	13.95300007	-3.84599996
         399	1	133	4	0.0	31.96500015	10.83600044	-3.81399989
         400	1	134	1	0.0	34.06700134	14.02799988	-6.22700024
         401	1	134	3	0.0	34.26499939	16.40099907	-6.62900019
         402	1	134	4	0.0	35.09799957	13.44799995	-7.19000006
         403	1	135	1	0.0	31.56399918	16.65800095	-7.2670002
         404	1	135	3	0.0	29.74099922	17.37199974	-5.90100002
         405	1	135	4	0.0	30.39299965	16.36599922	-8.17300034
         406	1	136	1	0.0	31.40500069	18.22900009	-3.9289999
         407	1	136	3	0.0	33.59700012	19.15699959	-3.7249999
         408	1	136	4	0.0	31.38199997	17.07900047	-2.90300012
         409	1	137	1	0.0	32.76200104	21.04000092	-1.90900004
         410	1	137	3	0.0	35.0320015	20.62899971	-1.19700003
         411	1	137	4	0.0	31.90399933	21.86199951	-0.94400001
         412	1	138	1	0.0	34.23799896	18.25099945	0.28099999
         413	1	138	3	0.0	36.61199951	17.97999954	0.104
         414	1	138	4	0.0	33.43700027	16.97599983	0.713
         415	1	139	1	0.0	36.44400024	16.9659996	-2.46199989
         416	1	139	3	0.0	38.51900101	18.05800056	-2.7750001
         417	1	139	4	0.0	35.93199921	16.22200012	-3.67499995
         418	1	140	1	0.0	37.41400146	20.44400024	-3.71700001
         419	1	140	3	0.0	39.34700012	21.54299927	-2.8599999
         420	1	140	4	0.0	36.51399994	21.45599937	-4.44199991
         421	1	141	1	0.0	38.45399857	21.65800095	-0.222
         422	1	141	3	0.0	40.63199997	21.27899933	0.634
         423	1	141	4	0.0	37.54499817	22.01600075	0.98000002
         424	1	142	1	0.0	40.37799835	18.46299934	0.92400002
         425	1	142	3	0.0	40.14500046	16.15999985	0.391
         426	1	142	4	0.0	39.95000076	17.90699959	2.26699996
         427	1	143	1	0.0	41.14799881	16.48200035	-2.20900011
         428	1	143	3	0.0	41.5379982	14.16100025	-2.29200006
         429	1	143	4	0.0	41.70399857	17.13699913	-3.477
         430	1	144	1	0.0	43.85200119	14.14000034	-0.79000002
         431	1	144	3	0.0	43.14699936	11.95499992	-0.068
         432	1	144	4	0.0	45.24200058	14.4630003	-0.21600001
         433	1	145	1	0.0	41.69499969	12.80099964	2.13700008
         434	1	145	3	0.0	40.03499985	11.17500019	1.43499994
         435	1	145	4	0.0	41.2519989	13.5880003	3.34500003
         436	1	146	1	0.0	38.57699966	12.8579998	-0.049
         437	1	146	3	0.0	38.17599869	10.75899982	-1.12300003
         438	1	146	4	0.0	37.7159996	14.02999973	-0.55900002
         439	1	147	1	0.0	40.45299911	10.8380003	-2.71499991
         440	1	147	3	0.0	40.34899902	8.47500038	-2.68600011
         441	1	147	4	0.0	41.70700073	11.19699955	-3.45499992
         442	1	148	1	0.0	41.47900009	8.22900009	-0.2
         443	1	148	3	0.0	40.03499985	6.36299992	-0.011
         444	1	148	4	0.0	42.29000092	8.34899998	1.08899999
         445	1	149	1	0.0	37.8370018	7.75099993	1.00600004
         446	1	149	3	0.0	36.61000061	6.08599997	-0.235
         447	1	149	4	0.0	36.99700165	8.80300045	1.72399998
         448	1	150	1	0.0	36.55099869	7.71400023	-2.54500008
         449	1	150	3	0.0	36.45500183	5.61199999	-3.64100003
         450	1	150	4	0.0	36.64899826	8.89500046	-3.5480001
         451	1	151	1	0.0	39.11899948	5.09600019	-3.61299992
         452	1	151	3	0.0	38.54000092	2.84100008	-3.25699997
         453	1	151	4	0.0	40.69200134	5.21500015	-3.5999999
         454	1	152	1	0.0	38.05799866	3.01200008	-0.60500002
         455	1	152	3	0.0	36.34500122	1.329	-1.13300002
         456	1	152	4	0.0	38.19400024	3.3900001	0.89499998
         457	1	153	1	0.0	34.46099854	3.1099999	-1.86600006
         458	1	153	3	0.0	33.72999954	1.54799998	-3.61299992
         459	1	153	4	0.0	33.52299881	4.33799982	-1.99600005
         460	1	154	1	0.0	35.51699829	2.46600008	-5.41300011
         461	1	154	3	0.0	35.41199875	0.25600001	-6.25500011
         462	1	154	4	0.0	36.41899872	3.28500009	-6.31099987
         463	1	155	1	0.0	37.65200043	-0.60900003	-4.75699997
         464	1	155	3	0.0	37.51800156	-2.77099991	-3.7579999
         465	1	155	4	0.0	39.18500137	-0.45500001	-4.75600004
         466	1	156	1	0.0	36.5019989	-1.97399998	-1.49800003
         467	1	156	3	0.0	37.73799896	-3.60899997	-0.303
         468	1	156	5	0.0	36.76900101	-2.34050638	-0.73586194
         469	1	157	1	0.0	40.22499847	-2.38599992	-0.53399998
         470	1	157	3	0.0	40.44599915	-0.14300001	0.185
         471	1	157	4	0.0	41.1969986	-2.77399993	-1.66199994
         472	1	158	1	0.0	42.67200089	-0.57099998	1.77699995
         473	1	158	3	0.0	44.74100113	0.67400002	1.60699999
         474	1	158	4	0.0	43.19900131	-1.227	3.03600001
         475	1	159	1	0.0	44.9469986	0.315	-1.06500006
         476	1	159	3	0.0	46.59999847	1.96200001	-0.838
         477	1	159	4	0.0	44.74300003	0.034	-2.56100011
         478	1	160	1	0.0	44.85699844	4.08099985	-0.65600002
         479	1	160	3	0.0	46.1570015	5.52799988	0.78399998
         480	1	160	4	0.0	43.64500046	4.92299986	-0.96899998
         481	1	161	1	0.0	45.9980011	3.88899994	2.98000002
         482	1	161	3	0.0	47.84000015	3.148	4.32299995
         483	1	161	4	0.0	44.96900177	3.47000003	4.05900002
         484	1	162	1	0.0	48.54800034	1.21700001	2.54699993
         485	1	162	3	0.0	50.87900162	1.09099996	3.20600009
         486	1	162	4	0.0	48.18899918	-0.221	2.22199988
         487	1	163	1	0.0	51.43299866	3.47300005	2.01600003
         488	1	163	3	0.0	52.70500183	4.31599998	3.91899991
         489	1	163	4	0.0	51.24499893	4.38399982	0.78399998
         490	1	164	1	0.0	50.38499832	5.9380002	4.78900003
         491	1	164	3	0.0	50.99900055	6.39900017	7.03399992
         492	1	164	4	0.0	48.98199844	6.5619998	4.68300009

Bond Coeffs

           1	200.0	3.77
           2	200.0	2.41
           3	200.0	2.50
           4	200.0	1.54
           5	200.0	1.54
Bonds

           1	2	1	2
           2	4	1	3
           3	1	1	4
           4	3	2	4
           5	2	4	5
           6	4	4	6
           7	1	4	7
           8	3	5	7
           9	2	7	8
          10	4	7	9
          11	1	7	10
          12	3	8	10
          13	2	10	11
          14	4	10	12
          15	1	10	13
          16	3	11	13
          17	2	13	14
          18	4	13	15
          19	1	13	16
          20	3	14	16