ITEM: TIMESTEP
0
ITEM: NUMBER OF ATOMS
492
ITEM: BOX BOUNDS ss ss ss
15.448 52.745
-5.505 33.693
-11.92 35.059
ITEM: ATOMS id type xs ys zs
1 1 0.761831 0.0925557 0.442134
2 3 0.7044 0.0658197 0.44786
3 4 0.763225 0.110388 0.412801
4 1 0.680591 0.118552 0.484195
5 3 0.688876 0.177943 0.47666
6 4 0.680618 0.10026 0.51357
7 1 0.620264 0.197459 0.493944
8 3 0.647693 0.254018 0.502671
9 4 0.579939 0.19728 0.501522
10 1 0.678875 0.235318 0.55148
11 3 0.725822 0.274861 0.539433
12 4 0.685819 0.219322 0.581281
13 1 0.766281 0.229093 0.509845
14 3 0.780948 0.274121 0.478171
15 4 0.784728 0.196158 0.500564
16 1 0.719736 0.264197 0.445348
17 3 0.723999 0.324761 0.43926
18 4 0.684237 0.249987 0.433108
19 1 0.684505 0.342466 0.48362
20 3 0.722417 0.389663 0.495817
21 4 0.652439 0.347594 0.502586
22 1 0.772395 0.354967 0.521659
23 3 0.81229 0.395632 0.499585
24 4 0.79127 0.33193 0.542732
25 1 0.81524 0.362927 0.447966
26 3 0.81658 0.420685 0.431406
27 4 0.819637 0.334481 0.425956
28 1 0.744242 0.424486 0.421933
29 3 0.743277 0.484438 0.430213
30 4 0.705365 0.412827 0.415675
31 1 0.737861 0.482907 0.48626
32 3 0.774539 0.523471 0.509973
33 4 0.70877 0.475764 0.508951
34 1 0.828404 0.480382 0.52234
35 3 0.792691 0.469106 0.563465
36 5 0.796203 0.46827 0.500298
37 1 0.845108 0.486887 0.603184
38 3 0.89479 0.522093 0.606973
39 4 0.869105 0.459794 0.616126
40 1 0.856852 0.574723 0.635986
41 3 0.814221 0.575489 0.67328
42 4 0.846529 0.604317 0.616297
43 1 0.865217 0.586739 0.716256
44 3 0.850149 0.626027 0.752464
45 4 0.894603 0.570488 0.733988
46 1 0.849827 0.681897 0.713744
47 3 0.819396 0.684372 0.66998
48 4 0.882725 0.704475 0.710509
49 1 0.768855 0.735624 0.687477
50 3 0.810789 0.764121 0.658571
51 4 0.746655 0.764019 0.701675
52 1 0.781752 0.7469 0.609166
53 3 0.72038 0.751875 0.599417
54 4 0.806821 0.722103 0.593563
55 1 0.728423 0.777871 0.550246
56 3 0.754297 0.744936 0.513527
57 4 0.728691 0.813715 0.538687
58 1 0.689197 0.72019 0.495732
59 3 0.708931 0.766417 0.466528
60 4 0.656889 0.695877 0.498435
61 1 0.691825 0.734094 0.415888
62 3 0.672547 0.782999 0.390898
63 4 0.688259 0.706592 0.392814
64 1 0.602917 0.781264 0.421656
65 3 0.578545 0.83341 0.438622
66 4 0.569375 0.761187 0.42966
67 1 0.635145 0.842109 0.477937
68 3 0.629783 0.853156 0.527193
69 5 0.630775 0.829039 0.463802
70 1 0.598091 0.79749 0.542647
71 3 0.645387 0.757743 0.5561
72 4 0.563504 0.780142 0.546159
73 1 0.63182 0.775269 0.613934
74 3 0.594203 0.725037 0.62215
75 4 0.619782 0.798051 0.638583
76 1 0.654181 0.680851 0.617851
77 3 0.709145 0.691209 0.643841
78 4 0.660187 0.668861 0.585921
79 1 0.710057 0.625517 0.666723
80 3 0.686919 0.571738 0.649631
81 4 0.70743 0.635823 0.697673
82 1 0.745797 0.532884 0.667894
83 3 0.764217 0.531073 0.619532
84 5 0.740891 0.481513 0.658261
85 1 0.71676 0.477933 0.605505
86 3 0.657586 0.468978 0.589008
87 4 0.718825 0.438645 0.607356
88 1 0.653216 0.534976 0.564273
89 3 0.590181 0.542834 0.57232
90 5 0.683621 0.518902 0.518531
91 1 0.597287 0.556049 0.629409
92 3 0.60348 0.614521 0.642755
93 4 0.605169 0.546405 0.660955
94 1 0.549347 0.639676 0.610826
95 3 0.515082 0.63914 0.654037
96 4 0.51838 0.645416 0.590434
97 1 0.539025 0.695367 0.675153
98 3 0.481031 0.718914 0.68586
99 4 0.569617 0.710572 0.692416
100 1 0.486768 0.772106 0.648098
101 3 0.517816 0.78606 0.605632
102 4 0.488806 0.801469 0.670981
103 1 0.464246 0.819583 0.581089
104 3 0.472478 0.878183 0.569403
105 4 0.431509 0.815118 0.56223
106 1 0.470494 0.901168 0.625982
107 3 0.534654 0.897775 0.627536
108 4 0.45572 0.908414 0.655804
109 1 0.543234 0.964233 0.612912
110 3 0.596241 0.977779 0.63837
111 4 0.535432 0.99898 0.599736
112 1 0.570126 0.967524 0.689116
113 3 0.580985 0.912827 0.709572
114 4 0.545486 0.981019 0.71251
115 1 0.651849 0.922215 0.714404
116 3 0.644743 0.88905 0.757849
117 4 0.691101 0.934895 0.711999
118 1 0.611014 0.937216 0.785393
119 3 0.575033 0.891398 0.804657
120 4 0.61029 0.969437 0.804445
121 1 0.525592 0.892392 0.763958
122 3 0.528568 0.832287 0.774176
123 4 0.501917 0.900224 0.738564
124 1 0.58439 0.818868 0.736308
125 3 0.593345 0.771723 0.76845
126 4 0.612623 0.820322 0.712531
127 1 0.635118 0.809276 0.805445
128 3 0.612006 0.777948 0.845803
129 4 0.657667 0.837874 0.816918
130 1 0.547926 0.807694 0.845527
131 3 0.519452 0.751952 0.853232
132 4 0.523206 0.838487 0.848571
133 1 0.509451 0.737487 0.799144
134 3 0.524761 0.679244 0.814321
135 4 0.506636 0.741619 0.766853
136 1 0.595624 0.688607 0.808978
137 3 0.592836 0.645109 0.844824
138 4 0.634233 0.700265 0.802699
139 1 0.591066 0.690341 0.889802
140 3 0.560608 0.646793 0.914877
141 4 0.590289 0.72195 0.908534
142 1 0.493873 0.664116 0.884821
143 3 0.485106 0.603857 0.886247
144 4 0.466204 0.686081 0.869282
145 1 0.517414 0.590336 0.835054
146 3 0.53452 0.53467 0.853466
147 4 0.52779 0.592632 0.803614
148 1 0.596858 0.559978 0.881883
149 3 0.596938 0.529236 0.926648
150 4 0.636164 0.573065 0.877626
151 1 0.55908 0.577249 0.955916
152 3 0.592487 0.583729 0.999149
153 5 0.568544 0.538979 0.928289
154 1 0.644743 0.623629 0.977203
155 3 0.642974 0.666003 0.942059
156 4 0.676355 0.598857 0.97931
157 1 0.690136 0.709398 0.968241
158 3 0.748666 0.690316 0.96343
159 4 0.7007 0.735905 0.990506
160 1 0.746468 0.692688 0.904362
161 3 0.800198 0.716133 0.885012
162 4 0.727726 0.674703 0.879393
163 1 0.76966 0.779938 0.878818
164 3 0.816178 0.774147 0.84459
165 4 0.799957 0.791214 0.899572
166 1 0.773896 0.751722 0.802039
167 3 0.81347 0.713812 0.777581
168 5 0.761348 0.724405 0.741422
169 1 0.828109 0.674065 0.816429
170 3 0.807491 0.63789 0.852849
171 4 0.864788 0.682356 0.828668
172 1 0.809931 0.581101 0.821793
173 3 0.863716 0.558881 0.80189
174 4 0.774003 0.569672 0.809042
175 1 0.857844 0.497704 0.831052
176 3 0.815615 0.475662 0.79676
177 4 0.859935 0.477882 0.859299
178 1 0.862241 0.428644 0.774814
179 3 0.807947 0.396168 0.763511
180 4 0.896372 0.409358 0.768322
181 1 0.802022 0.375682 0.820728
182 3 0.738504 0.374152 0.812938
183 4 0.811379 0.366728 0.851444
184 1 0.730863 0.445278 0.821324
185 3 0.685766 0.445278 0.785798
186 4 0.734965 0.479846 0.835522
187 1 0.735367 0.452421 0.73965
188 3 0.691906 0.42168 0.712191
189 4 0.768292 0.460202 0.721748
190 1 0.717162 0.356625 0.73386
191 3 0.659061 0.333027 0.731518
192 4 0.742794 0.328052 0.742992
193 1 0.639167 0.359023 0.784691
194 3 0.584095 0.363641 0.758211
195 4 0.640078 0.374943 0.81381
196 1 0.597474 0.430354 0.740522
197 3 0.559053 0.411705 0.701845
198 4 0.612757 0.466784 0.734733
199 1 0.617154 0.37905 0.673045
200 3 0.569027 0.342007 0.6564
201 4 0.655736 0.369024 0.665787
202 1 0.572486 0.299327 0.702122
203 3 0.509317 0.295372 0.689883
204 4 0.582621 0.28106 0.730433
205 1 0.490951 0.353105 0.720109
206 3 0.442234 0.358972 0.68818
207 4 0.488377 0.38428 0.740097
208 1 0.487224 0.394102 0.647055
209 3 0.453146 0.370988 0.608208
210 4 0.513232 0.421476 0.634134
211 1 0.494437 0.311776 0.605526
212 3 0.437327 0.286851 0.594031
213 4 0.527442 0.287617 0.602652
214 1 0.421187 0.271085 0.650589
215 3 0.360056 0.277999 0.633347
216 4 0.424538 0.265779 0.683029
217 1 0.358956 0.346931 0.642095
218 3 0.32075 0.348742 0.601524
219 4 0.366222 0.383795 0.649588
220 1 0.375633 0.342237 0.561315
221 3 0.33 0.310679 0.535771
222 4 0.412071 0.345451 0.546627
223 1 0.350806 0.248431 0.558186
224 3 0.287181 0.239477 0.553566
225 4 0.371478 0.218174 0.570766
226 1 0.267609 0.257335 0.605547
227 3 0.215218 0.273585 0.580962
228 4 0.264364 0.266544 0.636369
229 1 0.240824 0.33466 0.562272
230 3 0.197978 0.326777 0.523936
231 5 0.260718 0.35377 0.54421
232 1 0.242432 0.287464 0.491688
233 3 0.188165 0.258406 0.47766
234 4 0.274901 0.268253 0.478278
235 1 0.188004 0.213888 0.524085
236 3 0.125211 0.20473 0.532046
237 4 0.203502 0.184831 0.54237
238 1 0.115854 0.272667 0.55329
239 3 0.0758506 0.312592 0.531472
240 4 0.122369 0.294862 0.580089
241 1 0.110357 0.32147 0.485174
242 3 0.105665 0.277387 0.449328
243 4 0.138858 0.347849 0.478043
244 1 0.0384213 0.297898 0.430426
245 3 0.045875 0.277999 0.382341
246 4 0.00107247 0.313307 0.430682
247 1 0.0920181 0.32716 0.368164
248 3 0.134595 0.291801 0.343749
249 4 0.0987479 0.364406 0.361459
250 1 0.182562 0.291316 0.389493
251 3 0.202912 0.233507 0.383278
252 4 0.206263 0.310756 0.411333
253 1 0.157466 0.207511 0.424509
254 3 0.172829 0.154549 0.401094
255 4 0.128911 0.201515 0.447391
256 1 0.126793 0.163835 0.356968
257 3 0.16685 0.134701 0.326295
258 4 0.0929297 0.174932 0.340791
259 1 0.209186 0.190265 0.316269
260 3 0.255785 0.147431 0.3201
261 4 0.223021 0.226185 0.311373
262 1 0.26903 0.157993 0.376487
263 3 0.287289 0.0993163 0.371251
264 4 0.269244 0.172075 0.406884
265 1 0.218811 0.0735497 0.380404
266 3 0.235569 0.0261493 0.351199
267 4 0.178406 0.0691362 0.385321
268 1 0.231493 0.0604878 0.30205
269 3 0.279057 0.0393132 0.274655
270 4 0.214628 0.0800296 0.277677
271 1 0.333164 0.0719169 0.304051
272 3 0.34984 0.0314557 0.340556
273 4 0.350001 0.106893 0.313204
274 1 0.414323 0.0136742 0.313523
275 3 0.430651 0.064289 0.34111
276 4 0.439794 0.00102046 0.29013
277 1 0.477116 0.0286239 0.376551
278 3 0.502721 0.0821215 0.389046
279 4 0.496689 0.00186234 0.393665
280 1 0.544226 0.0870963 0.339471
281 3 0.529935 0.146155 0.345239
282 4 0.573799 0.0777591 0.317716
283 1 0.476124 0.145288 0.305285
284 3 0.448106 0.188836 0.333766
285 4 0.451511 0.135645 0.28104
286 1 0.429901 0.148349 0.377381
287 3 0.439767 0.198684 0.405202
288 4 0.418103 0.121409 0.398923
289 1 0.514545 0.189755 0.407054
290 3 0.51779 0.250191 0.407842
291 4 0.552162 0.174958 0.407863
292 1 0.511462 0.256084 0.348709
293 3 0.482532 0.310424 0.357607
294 4 0.513956 0.249018 0.316333
295 1 0.416173 0.28527 0.367441
296 3 0.411266 0.328359 0.403734
297 4 0.383141 0.260702 0.366717
298 1 0.444513 0.286826 0.445561
299 3 0.463442 0.342262 0.461781
300 4 0.460466 0.259299 0.465974
301 1 0.521704 0.344456 0.423913
302 3 0.508111 0.405454 0.428936
303 4 0.54991 0.333027 0.401264
304 1 0.460251 0.4065 0.385066
305 3 0.433306 0.450457 0.413483
306 4 0.436309 0.398949 0.359501
307 1 0.396654 0.409256 0.447157
308 3 0.406574 0.448875 0.485919
309 4 0.370915 0.381091 0.456502
310 1 0.468322 0.424843 0.501671
311 3 0.479449 0.485841 0.508185
312 4 0.501166 0.401602 0.503097
313 1 0.501756 0.498393 0.4568
314 3 0.475963 0.553982 0.460461
315 4 0.52216 0.495331 0.427978
316 1 0.416843 0.537757 0.431342
317 3 0.355176 0.555207 0.440963
318 4 0.423171 0.538293 0.397518
319 1 0.341877 0.509465 0.478937
320 3 0.314797 0.48852 0.433619
321 5 0.376733 0.494459 0.488521
322 1 0.260182 0.455023 0.463313
323 3 0.227016 0.463059 0.419209
324 4 0.242137 0.441706 0.490411
325 1 0.208971 0.529644 0.434471
326 3 0.210607 0.537068 0.384065
327 4 0.200204 0.561432 0.452032
328 1 0.282221 0.552171 0.382043
329 3 0.28088 0.527552 0.335639
330 5 0.262139 0.551016 0.362405
331 1 0.294662 0.463059 0.353413
332 3 0.252996 0.444946 0.318483
333 4 0.312036 0.432777 0.36793
334 1 0.194546 0.449819 0.35237
335 3 0.159825 0.460432 0.31016
336 4 0.167306 0.451681 0.376551
337 1 0.193635 0.522527 0.298644
338 3 0.199802 0.526889 0.247834
339 5 0.201008 0.526382 0.29127
340 1 0.247634 0.474795 0.242215
341 3 0.232646 0.418491 0.223802
342 4 0.285867 0.460763 0.246025
343 1 0.161112 0.435252 0.21533
344 3 0.167145 0.380734 0.19398
345 4 0.127034 0.455789 0.207646
346 1 0.192294 0.408312 0.143106
347 3 0.21983 0.35336 0.134464
348 4 0.20082 0.434767 0.119926
349 1 0.28021 0.368182 0.164754
350 3 0.283749 0.311649 0.181443
351 4 0.311902 0.384356 0.179995
352 1 0.23463 0.319072 0.225484
353 3 0.21806 0.260906 0.213649
354 4 0.212028 0.33216 0.25124
355 1 0.170684 0.282923 0.169842
356 3 0.188487 0.230752 0.148024
357 4 0.146473 0.306674 0.152536
358 1 0.245972 0.255651 0.121991
359 3 0.274633 0.201822 0.131101
360 4 0.272247 0.276927 0.104004
361 1 0.295734 0.214756 0.18487
362 3 0.282704 0.154319 0.190468
363 4 0.310802 0.230879 0.212329
364 1 0.212081 0.164345 0.2049
365 3 0.203904 0.10896 0.1814
366 4 0.177521 0.180851 0.215415
367 1 0.207282 0.136104 0.128675
368 3 0.242781 0.104827 0.0971072
369 4 0.189023 0.15386 0.103791
370 1 0.306459 0.108475 0.128228
371 3 0.340483 0.104317 0.0853573
372 4 0.307049 0.0693403 0.130697
373 1 0.328391 0.169447 0.0677963
374 3 0.358662 0.222486 0.0752677
375 4 0.301016 0.19052 0.0529811
376 1 0.422769 0.184576 0.0920624
377 3 0.446041 0.242002 0.0901467
378 4 0.447757 0.153911 0.098427
379 1 0.459608 0.238635 0.030503
380 3 0.450975 0.298612 0.0316525
381 4 0.467437 0.224399 0.000851444
382 1 0.377698 0.293153 0.0244577
383 3 0.373944 0.342211 0.0534707
384 4 0.339625 0.283611 0.0146236
385 1 0.374802 0.309761 0.103301
386 3 0.407298 0.359074 0.119245
387 4 0.367751 0.286188 0.128419
388 1 0.475052 0.334303 0.104749
389 3 0.491192 0.39326 0.0982141
390 4 0.504679 0.30971 0.0952979
391 1 0.458777 0.397877 0.0447434
392 3 0.442985 0.45561 0.0577918
393 4 0.446872 0.389459 0.0142404
394 1 0.378475 0.438849 0.0822708
395 3 0.386063 0.484055 0.118031
396 4 0.342119 0.420838 0.0867835
397 1 0.423519 0.446094 0.155431
398 3 0.453227 0.496403 0.171864
399 4 0.442851 0.416884 0.172545
400 1 0.499209 0.498316 0.121182
401 3 0.504518 0.558855 0.112625
402 4 0.526852 0.48352 0.100683
403 1 0.432099 0.565412 0.0990442
404 3 0.383221 0.583627 0.128121
405 4 0.400702 0.557962 0.079759
406 1 0.427836 0.60549 0.170097
407 3 0.486607 0.629165 0.17444
408 4 0.427219 0.576152 0.191937
409 1 0.46422 0.677203 0.213095
410 3 0.525082 0.666718 0.228251
411 4 0.441215 0.698173 0.233636
412 1 0.503794 0.606051 0.259712
413 3 0.567445 0.599138 0.255944
414 4 0.482318 0.573524 0.268907
415 1 0.562941 0.573269 0.201324
416 3 0.618575 0.601128 0.194661
417 4 0.549213 0.554288 0.175504
418 1 0.588948 0.661998 0.17461
419 3 0.640775 0.690035 0.192852
420 4 0.564818 0.687816 0.159178
421 1 0.616832 0.692969 0.249005
422 3 0.675229 0.6833 0.267226
423 4 0.59246 0.702102 0.274591
424 1 0.668418 0.61146 0.273399
425 3 0.662171 0.552707 0.262053
426 4 0.656943 0.597275 0.301986
427 1 0.689063 0.560921 0.206709
428 3 0.69952 0.501709 0.204943
429 4 0.703971 0.577631 0.179719
430 1 0.761563 0.501174 0.236914
431 3 0.74266 0.445431 0.252283
432 4 0.798831 0.509414 0.249133
433 1 0.703729 0.467014 0.299219
434 3 0.659222 0.425532 0.284276
435 4 0.691852 0.487091 0.324932
436 1 0.62013 0.468468 0.252687
437 3 0.609379 0.414919 0.229826
438 4 0.597045 0.498367 0.241831
439 1 0.670429 0.416935 0.195939
440 3 0.667641 0.356651 0.196556
441 4 0.704051 0.426093 0.180187
442 1 0.697938 0.350375 0.249473
443 3 0.659222 0.302771 0.253496
444 4 0.719683 0.353436 0.276911
445 1 0.60029 0.338181 0.275144
446 3 0.567391 0.295704 0.248728
447 4 0.577768 0.365019 0.290428
448 1 0.56581 0.337237 0.199557
449 3 0.563236 0.283611 0.176228
450 4 0.568437 0.367366 0.178207
451 1 0.634662 0.270447 0.176824
452 3 0.619138 0.212919 0.184402
453 4 0.676837 0.273483 0.1771
454 1 0.606215 0.217281 0.240852
455 3 0.560286 0.174346 0.229613
456 4 0.609861 0.226925 0.272781
457 1 0.509773 0.219782 0.214011
458 3 0.490173 0.179933 0.176824
459 4 0.484623 0.25111 0.211243
460 1 0.538086 0.203352 0.138509
461 3 0.535271 0.146972 0.120586
462 4 0.56227 0.224246 0.119394
463 1 0.595329 0.124904 0.152472
464 3 0.591737 0.0697485 0.173737
465 4 0.636432 0.128833 0.152494
466 1 0.564496 0.0900811 0.221844
467 3 0.597635 0.0483698 0.247281
468 5 0.571655 0.080731 0.238067
469 1 0.664316 0.0795704 0.242364
470 3 0.670242 0.136793 0.257668
471 4 0.690377 0.0696719 0.218353
472 1 0.729925 0.125874 0.291556
473 3 0.785398 0.157636 0.287937
474 4 0.744054 0.109138 0.318355
475 1 0.790921 0.148477 0.231061
476 3 0.835241 0.190494 0.235893
477 4 0.785452 0.141308 0.199217
478 1 0.788508 0.244553 0.239767
479 3 0.823364 0.281468 0.270419
480 4 0.756013 0.266034 0.233104
481 1 0.819101 0.239655 0.317163
482 3 0.868488 0.220751 0.34575
483 4 0.791511 0.228966 0.340131
484 1 0.887471 0.171488 0.307946
485 3 0.949969 0.168274 0.321974
486 4 0.877845 0.134803 0.301028
487 1 0.964823 0.229042 0.296643
488 3 0.998928 0.250549 0.337151
489 4 0.959782 0.252283 0.270419
490 1 0.936724 0.291928 0.35567
491 3 0.953187 0.303689 0.403457
492 4 0.899107 0.307847 0.353413
ITEM: TIMESTEP
1000
ITEM: NUMBER OF ATOMS
492
ITEM: BOX BOUNDS ss ss ss
15.4556 52.7853
-5.355 34.0426
-11.7327 35.22
ITEM: ATOMS id type xs ys zs
1 1 0.779512 0.0939354 0.436869
2 3 0.717912 0.0752226 0.446762
3 4 0.775094 0.111612 0.408086
4 1 0.703391 0.116226 0.487039
5 3 0.705557 0.177539 0.485301
6 4 0.704232 0.100021 0.515458
7 1 0.642711 0.191563 0.497897
8 3 0.66037 0.248997 0.511812
9 4 0.605123 0.18994 0.509105
10 1 0.702141 0.233477 0.551487
11 3 0.747247 0.271365 0.531828
12 4 0.712448 0.218028 0.58056
13 1 0.783619 0.231039 0.504053
14 3 0.790102 0.27139 0.464995
15 4 0.801669 0.199028 0.494215
16 1 0.72931 0.263484 0.442483
17 3 0.72132 0.324401 0.432124
18 4 0.694754 0.245821 0.432572
19 1 0.69625 0.340823 0.479207
20 3 0.737729 0.388646 0.489462
21 4 0.666706 0.341924 0.504559
22 1 0.787384 0.357662 0.513475
23 3 0.829242 0.390372 0.485822
24 4 0.811673 0.337065 0.5328
25 1 0.821283 0.364089 0.438439
26 3 0.810035 0.410587 0.404447
27 4 0.826935 0.33491 0.41897
28 1 0.745075 0.423136 0.416467
29 3 0.734525 0.482086 0.423096
30 4 0.707178 0.406742 0.413376
31 1 0.743334 0.484616 0.477451
32 3 0.78783 0.522338 0.496634
33 4 0.718821 0.474665 0.502576
34 1 0.83571 0.483399 0.51161
35 3 0.80842 0.480569 0.555757
36 5 0.796995 0.485538 0.504622
37 1 0.860696 0.492782 0.58926
38 3 0.899834 0.540383 0.588644
39 4 0.887132 0.467727 0.601281
40 1 0.870613 0.580472 0.62173
41 3 0.834892 0.580854 0.663444
42 4 0.855932 0.608233 0.601995
43 1 0.88115 0.596991 0.701285
44 3 0.863568 0.645132 0.730452
45 4 0.912273 0.582148 0.717231
46 1 0.86871 0.691692 0.694993
47 3 0.827585 0.69275 0.654241
48 4 0.900324 0.712954 0.690777
49 1 0.788178 0.738874 0.671807
50 3 0.809879 0.780758 0.637086
51 4 0.766396 0.763458 0.692674
52 1 0.792279 0.753383 0.592758
53 3 0.727613 0.751559 0.585695
54 4 0.810995 0.724904 0.57805
55 1 0.725433 0.776902 0.53606
56 3 0.740438 0.74355 0.495275
57 4 0.727461 0.813049 0.525499
58 1 0.681744 0.714146 0.483938
59 3 0.672048 0.759935 0.453005
60 4 0.652623 0.69003 0.490534
61 1 0.678334 0.728215 0.406856
62 3 0.643616 0.771312 0.385244
63 4 0.672502 0.696683 0.384534
64 1 0.591403 0.775366 0.417891
65 3 0.589091 0.837668 0.423868
66 4 0.556491 0.755475 0.430392
67 1 0.62092 0.836814 0.474271
68 3 0.611326 0.848037 0.525216
69 5 0.584614 0.847473 0.463809
70 1 0.592196 0.788356 0.53783
71 3 0.652784 0.778822 0.553342
72 4 0.570838 0.757817 0.532452
73 1 0.638937 0.773717 0.606691
74 3 0.613318 0.721893 0.621648
75 4 0.627102 0.797957 0.629671
76 1 0.662189 0.680082 0.611142
77 3 0.722098 0.675293 0.626
78 4 0.662584 0.668874 0.580228
79 1 0.72131 0.627977 0.659058
80 3 0.696775 0.570958 0.663162
81 4 0.715964 0.638076 0.692
82 1 0.756054 0.538191 0.661577
83 3 0.755993 0.539794 0.608943
84 5 0.795571 0.552502 0.65923
85 1 0.724547 0.482257 0.603184
86 3 0.662343 0.487467 0.604237
87 4 0.726983 0.441897 0.607317
88 1 0.653779 0.529122 0.563154
89 3 0.590823 0.535947 0.576734
90 5 0.677837 0.511169 0.541204
91 1 0.600167 0.554665 0.626486
92 3 0.611655 0.614657 0.623965
93 4 0.615935 0.544754 0.655551
94 1 0.551299 0.636988 0.613828
95 3 0.517623 0.63609 0.656561
96 4 0.521554 0.643596 0.59296
97 1 0.538351 0.691792 0.678834
98 3 0.489042 0.727104 0.691218
99 4 0.572613 0.704937 0.69192
100 1 0.486466 0.7648 0.648779
101 3 0.5154 0.783353 0.604732
102 4 0.488782 0.793242 0.670885
103 1 0.465902 0.81649 0.585884
104 3 0.472473 0.876712 0.57821
105 4 0.429651 0.809875 0.56986
106 1 0.466806 0.89746 0.62774
107 3 0.530391 0.89845 0.633011
108 4 0.452615 0.901571 0.658238
109 1 0.541557 0.958558 0.617823
110 3 0.586302 0.982353 0.647165
111 4 0.53453 0.995318 0.605687
112 1 0.56544 0.963771 0.695657
113 3 0.58104 0.909995 0.714056
114 4 0.540032 0.975341 0.717905
115 1 0.645612 0.917348 0.721808
116 3 0.641726 0.886735 0.768136
117 4 0.683836 0.932497 0.718222
118 1 0.60412 0.930507 0.793307
119 3 0.556604 0.896368 0.811361
120 4 0.59952 0.962053 0.810975
121 1 0.523986 0.88312 0.766447
122 3 0.52583 0.822247 0.766858
123 4 0.49699 0.896869 0.74509
124 1 0.582308 0.81267 0.739771
125 3 0.604117 0.770414 0.771328
126 4 0.613736 0.815761 0.718271
127 1 0.626442 0.804198 0.813288
128 3 0.599742 0.774486 0.852538
129 4 0.648678 0.83156 0.82412
130 1 0.537824 0.79846 0.848597
131 3 0.505349 0.745491 0.85089
132 4 0.51434 0.828609 0.850648
133 1 0.506567 0.73049 0.798446
134 3 0.521791 0.672687 0.811584
135 4 0.507241 0.737101 0.767907
136 1 0.589533 0.680114 0.811878
137 3 0.594594 0.641313 0.852023
138 4 0.628209 0.691628 0.804924
139 1 0.57823 0.68186 0.891829
140 3 0.535502 0.646635 0.914441
141 4 0.58243 0.714269 0.912009
142 1 0.483781 0.655669 0.884287
143 3 0.467518 0.598625 0.874152
144 4 0.455867 0.679535 0.86912
145 1 0.511182 0.583505 0.836302
146 3 0.529328 0.529618 0.856683
147 4 0.523087 0.588065 0.805073
148 1 0.587802 0.550964 0.87996
149 3 0.585225 0.527346 0.925179
150 4 0.625225 0.565544 0.875739
151 1 0.54993 0.566829 0.954647
152 3 0.582196 0.574552 0.99843
153 5 0.570345 0.54048 0.971679
154 1 0.632475 0.613307 0.981744
155 3 0.649298 0.647048 0.942233
156 4 0.661273 0.585837 0.978655
157 1 0.673648 0.696356 0.973317
158 3 0.733853 0.688876 0.96297
159 4 0.679659 0.721075 0.999455
160 1 0.738611 0.682891 0.912285
161 3 0.790336 0.714668 0.901876
162 4 0.719766 0.668207 0.885644
163 1 0.761276 0.772139 0.887832
164 3 0.78923 0.793225 0.844067
165 4 0.793581 0.780629 0.908353
166 1 0.768967 0.744807 0.815711
167 3 0.818584 0.717147 0.795129
168 5 0.743824 0.769918 0.830055
169 1 0.824112 0.669109 0.829649
170 3 0.7974 0.628719 0.857524
171 4 0.85623 0.680247 0.850019
172 1 0.80278 0.575543 0.826676
173 3 0.853582 0.544535 0.808476
174 4 0.76705 0.571717 0.810744
175 1 0.851157 0.492364 0.839282
176 3 0.81213 0.462448 0.80699
177 4 0.855603 0.472221 0.869051
178 1 0.858801 0.426414 0.77964
179 3 0.811493 0.385362 0.771026
180 4 0.893834 0.408755 0.776036
181 1 0.795161 0.374385 0.821791
182 3 0.730803 0.377693 0.825148
183 4 0.807644 0.363297 0.85178
184 1 0.723327 0.443328 0.822798
185 3 0.683908 0.449125 0.781041
186 4 0.727241 0.476099 0.841084
187 1 0.731087 0.449167 0.74295
188 3 0.693061 0.414473 0.714376
189 4 0.764942 0.458401 0.724551
190 1 0.715333 0.357099 0.73261
191 3 0.655297 0.333049 0.734477
192 4 0.741989 0.328486 0.743642
193 1 0.634068 0.35955 0.780757
194 3 0.576603 0.373695 0.7608
195 4 0.635219 0.371185 0.813795
196 1 0.593261 0.429614 0.738802
197 3 0.565842 0.418501 0.694324
198 4 0.605515 0.468651 0.738428
199 1 0.61334 0.381175 0.672497
200 3 0.568299 0.340348 0.6565
201 4 0.652791 0.368452 0.665989
202 1 0.569918 0.299623 0.699639
203 3 0.506552 0.29264 0.697036
204 4 0.584742 0.278586 0.726178
205 1 0.489317 0.349628 0.718077
206 3 0.444001 0.363684 0.681234
207 4 0.485964 0.381112 0.739269
208 1 0.48421 0.389399 0.64337
209 3 0.455174 0.362053 0.603082
210 4 0.515739 0.41172 0.633486
211 1 0.492117 0.307646 0.604544
212 3 0.443473 0.265059 0.599607
213 4 0.525351 0.284509 0.602708
214 1 0.418655 0.270033 0.648902
215 3 0.354726 0.279425 0.641233
216 4 0.42494 0.260284 0.680787
217 1 0.359311 0.342265 0.636149
218 3 0.325822 0.349707 0.593383
219 4 0.36572 0.380529 0.646714
220 1 0.374441 0.339295 0.558606
221 3 0.339745 0.301378 0.529468
222 4 0.410249 0.345151 0.544112
223 1 0.35017 0.246259 0.555314
224 3 0.289602 0.228617 0.552259
225 4 0.37374 0.217401 0.566364
226 1 0.266562 0.252575 0.599297
227 3 0.21601 0.276498 0.578845
228 4 0.266692 0.25843 0.632147
229 1 0.242305 0.328838 0.556155
230 3 0.201776 0.319908 0.516485
231 5 0.21065 0.314661 0.538197
232 1 0.242127 0.281329 0.487144
233 3 0.198053 0.241913 0.470678
234 4 0.276657 0.266011 0.473355
235 1 0.188009 0.207026 0.516373
236 3 0.124221 0.206903 0.527133
237 4 0.204606 0.181998 0.536832
238 1 0.117376 0.264719 0.548171
239 3 0.0719491 0.296846 0.522802
240 4 0.121078 0.282398 0.575314
241 1 0.108634 0.316157 0.481115
242 3 0.0992419 0.271545 0.446428
243 4 0.138624 0.340658 0.47296
244 1 0.0399936 0.292873 0.42686
245 3 0.0503628 0.27556 0.379211
246 4 0.00201585 0.30794 0.42708
247 1 0.0935284 0.323198 0.364888
248 3 0.139655 0.291144 0.342484
249 4 0.0950717 0.36186 0.359237
250 1 0.18217 0.286052 0.385238
251 3 0.208504 0.231491 0.394796
252 4 0.206797 0.308798 0.404364
253 1 0.157901 0.202335 0.418951
254 3 0.167966 0.153241 0.389581
255 4 0.128319 0.19639 0.43979
256 1 0.12426 0.161949 0.35056
257 3 0.163042 0.140071 0.313994
258 4 0.0897089 0.173071 0.335727
259 1 0.207103 0.18651 0.310538
260 3 0.264 0.156917 0.315565
261 4 0.21968 0.222277 0.306381
262 1 0.267601 0.153415 0.369266
263 3 0.279667 0.0939928 0.373264
264 4 0.268164 0.169638 0.39885
265 1 0.21671 0.0712433 0.372567
266 3 0.224132 0.0254682 0.339439
267 4 0.177066 0.0675539 0.382198
268 1 0.229989 0.0570232 0.2935
269 3 0.28031 0.0490884 0.264001
270 4 0.2089 0.0776038 0.271347
271 1 0.331051 0.0697273 0.293824
272 3 0.352544 0.0257499 0.324344
273 4 0.345345 0.103536 0.304937
274 1 0.411786 0.0115452 0.301389
275 3 0.434911 0.0594326 0.328885
276 4 0.432644 -0.00181175 0.276864
277 1 0.473856 0.0267157 0.363227
278 3 0.508269 0.0767204 0.37349
279 4 0.495177 -0.00258813 0.37696
280 1 0.543287 0.0847209 0.328914
281 3 0.531295 0.144507 0.325033
282 4 0.568047 0.0726613 0.304998
283 1 0.473133 0.140805 0.296602
284 3 0.438684 0.181236 0.324989
285 4 0.449049 0.130133 0.272422
286 1 0.427561 0.145825 0.367733
287 3 0.446218 0.191104 0.400926
288 4 0.415625 0.117425 0.387579
289 1 0.512535 0.185764 0.395825
290 3 0.518758 0.246622 0.393154
291 4 0.55108 0.170571 0.394999
292 1 0.510139 0.252367 0.338377
293 3 0.477158 0.302931 0.345904
294 4 0.512515 0.244158 0.305869
295 1 0.415494 0.278505 0.357406
296 3 0.401262 0.309772 0.401105
297 4 0.38257 0.257105 0.354936
298 1 0.446287 0.285507 0.435632
299 3 0.479907 0.334215 0.452074
300 4 0.455949 0.255389 0.45347
301 1 0.521878 0.340868 0.410644
302 3 0.514691 0.402141 0.403633
303 4 0.548093 0.32849 0.388145
304 1 0.457593 0.401508 0.375144
305 3 0.423067 0.443894 0.402461
306 4 0.435234 0.390969 0.348135
307 1 0.395608 0.403172 0.437377
308 3 0.408597 0.44283 0.476106
309 4 0.372695 0.373595 0.449114
310 1 0.469845 0.419944 0.489751
311 3 0.495564 0.474523 0.495482
312 4 0.499121 0.393466 0.492827
313 1 0.500821 0.492692 0.443879
314 3 0.476145 0.548635 0.442271
315 4 0.520098 0.490809 0.41551
316 1 0.41587 0.535543 0.420288
317 3 0.364475 0.554913 0.444015
318 4 0.402669 0.525514 0.388833
319 1 0.34425 0.502299 0.468412
320 3 0.31474 0.471031 0.433311
321 5 0.351941 0.468329 0.481947
322 1 0.258917 0.450973 0.455892
323 3 0.217038 0.459875 0.416274
324 4 0.239468 0.436197 0.481316
325 1 0.210458 0.526463 0.425091
326 3 0.214457 0.546305 0.376671
327 4 0.201881 0.558332 0.442704
328 1 0.280685 0.546629 0.372189
329 3 0.284607 0.516986 0.329275
330 5 0.295144 0.549648 0.404795
331 1 0.290292 0.457832 0.345753
332 3 0.246794 0.434341 0.313077
333 4 0.309333 0.427066 0.360318
334 1 0.19165 0.445408 0.341563
335 3 0.151048 0.473853 0.307854
336 4 0.167013 0.447958 0.368237
337 1 0.193042 0.519092 0.290618
338 3 0.183739 0.498407 0.240781
339 5 0.183047 0.484476 0.301378
340 1 0.242719 0.469085 0.23391
341 3 0.210658 0.414038 0.240938
342 4 0.278113 0.452738 0.237539
343 1 0.1602 0.42722 0.207205
344 3 0.165136 0.374082 0.179344
345 4 0.125061 0.446227 0.202237
346 1 0.186849 0.40039 0.132792
347 3 0.220846 0.354296 0.126157
348 4 0.194243 0.427416 0.111764
349 1 0.272419 0.359371 0.158168
350 3 0.272694 0.302365 0.179125
351 4 0.304471 0.377708 0.171933
352 1 0.228552 0.311627 0.218169
353 3 0.204513 0.257199 0.204712
354 4 0.207167 0.325517 0.242604
355 1 0.165105 0.274671 0.163312
356 3 0.179937 0.22674 0.13334
357 4 0.140066 0.299842 0.145911
358 1 0.238345 0.247153 0.116204
359 3 0.27235 0.19544 0.126209
360 4 0.260215 0.268507 0.0970344
361 1 0.28606 0.205905 0.176755
362 3 0.269085 0.149044 0.191556
363 4 0.299529 0.224083 0.20458
364 1 0.203962 0.157612 0.198997
365 3 0.191144 0.10698 0.173309
366 4 0.17089 0.174018 0.211473
367 1 0.198958 0.128422 0.122872
368 3 0.235801 0.0868405 0.10055
369 4 0.184954 0.148863 0.0980922
370 1 0.295376 0.101917 0.123258
371 3 0.334757 0.100601 0.0821816
372 4 0.293501 0.0620835 0.120529
373 1 0.322612 0.159386 0.0636202
374 3 0.358888 0.203503 0.0829054
375 4 0.296074 0.180766 0.0469286
376 1 0.416745 0.174725 0.0874656
377 3 0.445243 0.22989 0.0801398
378 4 0.441665 0.144899 0.0892822
379 1 0.454609 0.226914 0.0266729
380 3 0.441781 0.288002 0.0254957
381 4 0.460889 0.212637 -0.00298602
382 1 0.373766 0.284994 0.0201622
383 3 0.367033 0.33237 0.0553902
384 4 0.335871 0.273417 0.011628
385 1 0.372545 0.298084 0.1006
386 3 0.408425 0.347187 0.119013
387 4 0.367166 0.273328 0.123659
388 1 0.468659 0.324319 0.0997373
389 3 0.489534 0.38263 0.0856721
390 4 0.498798 0.300233 0.0905945
391 1 0.452116 0.388815 0.0419968
392 3 0.425577 0.444031 0.0483124
393 4 0.443608 0.379252 0.0112173
394 1 0.376711 0.429206 0.0816736
395 3 0.383281 0.469773 0.118664
396 4 0.339288 0.41076 0.0847736
397 1 0.424032 0.435112 0.150625
398 3 0.460411 0.483684 0.163722
399 4 0.440886 0.40393 0.168106
400 1 0.496061 0.486168 0.118155
401 3 0.495915 0.542406 0.0993935
402 4 0.525269 0.471633 0.0972945
403 1 0.431467 0.555677 0.10019
404 3 0.38599 0.57751 0.131775
405 4 0.400039 0.546212 0.079161
406 1 0.427794 0.589338 0.173496
407 3 0.483541 0.61706 0.183836
408 4 0.426671 0.559471 0.195378
409 1 0.464034 0.659908 0.218392
410 3 0.513058 0.649443 0.251073
411 4 0.440409 0.680987 0.237012
412 1 0.5034 0.587778 0.260828
413 3 0.562755 0.56558 0.253351
414 4 0.479863 0.557782 0.269266
415 1 0.561624 0.562899 0.19765
416 3 0.614179 0.589546 0.179803
417 4 0.546779 0.540683 0.174537
418 1 0.590892 0.650106 0.176465
419 3 0.635573 0.683315 0.199521
420 4 0.562577 0.672274 0.164333
421 1 0.623508 0.674403 0.251439