LAMMPS protain data file

         621  atoms
         826  bonds
           0  angles
           0  dihedrals
           0  impropers

           5  atom types
           5  bond types
           0  angle types
           0  dihedral types
           0  improper types

-200.0	200.0	xlo xhi
-200.0	200.0	ylo yhi
-200.0	200.0	zlo zhi

Masses

           1	27.0
           2	14.0
           3	28.0
           4	60.0
           5	60.0

Atoms

           1	1	1	1	0.0	12.20600033	12.22000027	29.93600082
           2	1	1	3	0.0	9.91300011	11.68400002	29.02499962
           3	1	1	4	0.0	12.57199955	10.78600025	29.50399971
           4	1	2	1	0.0	8.42399979	12.24499989	31.44000053
           5	1	2	3	0.0	8.4630003	14.47299957	32.21900177
           6	1	2	4	0.0	8.1239996	11.43700027	32.69599915
           7	1	3	1	0.0	6.5250001	15.35299969	30.42399979
           8	1	3	3	0.0	4.30499983	14.6619997	29.8220005
           9	1	3	4	0.0	6.9460001	15.94499969	29.06599998
          10	1	4	1	0.0	3.09299994	16.09399986	31.87400055
          11	1	4	3	0.0	1.47300005	17.73200035	32.4679985
          12	1	4	4	0.0	2.71199989	15.31200027	33.13800049
          13	1	5	1	0.0	2.99799991	19.87299919	31.52599907
          14	1	5	3	0.0	4.72300005	20.03800011	29.92399979
          15	1	5	4	0.0	3.26900005	20.55599976	32.86800003
          16	1	6	1	0.0	3.96399999	22.53899956	28.97699928
          17	1	6	3	0.0	6.02799988	22.97599983	30.11000061
          18	1	6	4	0.0	3.42700005	23.97200012	28.86499977
          19	1	7	1	0.0	7.59100008	22.02400017	28.04299927
          20	1	7	3	0.0	7.45300007	21.42200089	25.72200012
          21	1	7	4	0.0	8.00199986	20.71699905	28.72800064
          22	1	8	1	0.0	9.93500042	22.66600037	25.1439991
          23	1	8	3	0.0	12.00599957	22.84900093	26.28899956
          24	1	8	4	0.0	9.91300011	24.07999992	24.54500008
          25	1	9	1	0.0	13.37300014	21.10700035	24.71800041
          26	1	9	3	0.0	13.15799999	20.08200073	22.51799965
          27	1	9	5	0.0	11.95199966	19.97228931	24.04918069
          28	1	10	1	0.0	15.58899975	18.82299995	22.72699928
          29	1	10	3	0.0	16.39800072	17.48399925	24.51300049
          30	1	10	4	0.0	16.80999947	19.50300026	22.11700058
          31	1	11	1	0.0	15.61299992	15.06599998	23.39999962
          32	1	11	3	0.0	15.46199989	13.91399956	21.24300003
          33	1	11	4	0.0	14.35400009	14.56700039	24.12299919
          34	1	12	1	0.0	17.9279995	12.70499992	21.55900002
          35	1	12	3	0.0	17.77199936	12.52700043	19.15800095
          36	1	12	4	0.0	17.20899963	11.35000038	21.66500092
          37	1	13	1	0.0	18.3920002	15.27499962	18.78100014
          38	1	13	3	0.0	17.16799927	16.66799927	17.26399994
          39	1	13	5	0.0	18.27499962	14.66931302	16.79534919
          40	1	14	1	0.0	14.6960001	16.0890007	18.23699951
          41	1	14	3	0.0	14.21500015	17.07900047	20.34600067
          42	1	14	4	0.0	13.72000027	14.87800026	18.11100006
          43	1	15	1	0.0	13.01200008	19.32500076	19.34300041
          44	1	15	3	0.0	10.83199978	18.44599915	18.87899971
          45	1	15	4	0.0	12.90400028	20.61100006	18.52599907
          46	1	16	1	0.0	10.16100025	18.07299995	21.52400017
          47	1	16	3	0.0	9.90400028	20.18700027	22.67200089
          48	1	16	4	0.0	10.24699974	16.9279995	22.54899979
          49	1	17	1	0.0	7.15799999	20.04299927	22.76199913
          50	1	17	3	0.0	5.30100012	18.49200058	22.51000023
          51	1	17	4	0.0	6.81400013	21.25799942	21.91699982
          52	1	18	1	0.0	4.19700003	19.32999992	25.02400017
          53	1	18	3	0.0	4.10200024	21.56599998	25.79700089
          54	1	18	4	0.0	4.39599991	18.64900017	26.36400032
          55	1	19	1	0.0	1.51400006	22.02799988	24.82799911
          56	1	19	3	0.0	-0.56199998	20.89699936	24.36700058
          57	1	19	4	0.0	1.58299994	22.9489994	23.58499908
          58	1	20	1	0.0	-1.94400001	22.18400002	26.41399956
          59	1	20	3	0.0	-1.65100002	24.24500084	27.5909996
          60	1	20	4	0.0	-2.29399991	21.04500008	27.35400009
          61	1	21	1	0.0	-4.39099979	24.80699921	27.61300087
          62	1	21	3	0.0	-4.64799976	22.98399925	29.23600006
          63	1	21	4	0.0	-5.4829998	25.49699974	26.80800056
          64	1	22	1	0.0	-6.125	24.45299911	30.98999977
          65	1	22	3	0.0	-7.96600008	23.27899933	29.95299911
          66	1	22	4	0.0	-6.69199991	25.61899948	31.8409996
          67	1	23	1	0.0	-8.03899956	21.37299919	32.03300095
          68	1	23	3	0.0	-6.8130002	19.95899963	30.50200081
          69	1	23	5	0.0	-7.10200024	19.80615835	30.47355051
          70	1	24	1	0.0	-7.58099985	17.62800026	31.80500031
          71	1	24	3	0.0	-5.41099977	18.1079998	32.75500107
          72	1	24	5	0.0	-7.95499992	15.36552831	29.31880828
          73	1	25	1	0.0	-4.23000002	15.9630003	31.64699936
          74	1	25	3	0.0	-4.40600014	14.69299984	29.6079998
          75	1	25	4	0.0	-4.16200018	15.01200008	32.86299896
          76	1	26	1	0.0	-1.59000003	14.62800026	29.37400055
          77	1	26	3	0.0	0.32600001	14.73200035	30.80900002
          78	1	26	5	0.0	-2.34200001	13.38212848	26.17578905
          79	1	27	1	0.0	1.47500002	12.44699955	29.62100029
          80	1	27	3	0.0	1.68799996	11.29399967	27.54100037
          81	1	27	4	0.0	1.33800006	11.19299984	30.52700043
          82	1	28	1	0.0	4.24399996	12.36100006	27.03100014
          83	1	28	3	0.0	6.15399981	12.19799995	28.46299934
          84	1	28	4	0.0	4.58099985	13.6619997	26.31999969
          85	1	29	1	0.0	7.11399984	9.88399982	27.34300041
          86	1	29	3	0.0	7.76599979	9.54199982	25.07799911
          87	1	29	4	0.0	6.83900023	8.43299961	27.71999931
          88	1	30	1	0.0	10.18099976	10.86800003	25.29899979
          89	1	30	3	0.0	11.75500011	9.24800014	26.06200027
          90	1	30	4	0.0	11.05500031	12.07199955	25.60099983
          91	1	31	1	0.0	11.64999962	7.75	23.66500092
          92	1	31	3	0.0	13.06000042	9.21199989	22.3560009
          93	1	31	4	0.0	10.67700005	6.65600014	23.23699951
          94	1	32	1	0.0	14.69200039	7.25600004	21.38199997
          95	1	32	3	0.0	13.36299992	7.83599997	19.45999908
          96	1	32	4	0.0	15.35299969	5.8920002	21.07299995
          97	1	33	1	0.0	15.26200008	9.54899979	18.40099907
          98	1	33	3	0.0	13.76799965	11.19499969	19.26199913
          99	1	33	5	0.0	15.36100006	9.06103224	16.05586972
         100	1	34	1	0.0	12.02299976	11.10200024	17.12999916
         101	1	34	3	0.0	9.69699955	10.96899986	17.71199989
         102	1	34	5	0.0	13.23099995	11.53079904	15.46441537
         103	1	35	1	0.0	9.86699963	8.64700031	19.09000015
         104	1	35	3	0.0	10.1789999	9.7869997	21.21899986
         105	1	35	4	0.0	10.10200024	7.11499977	19.10899925
         106	1	36	1	0.0	7.50500011	9.25899982	21.93600082
         107	1	36	3	0.0	5.58199978	8.11699963	21.06699944
         108	1	36	4	0.0	7.32000017	10.78199959	21.96800041
         109	1	37	1	0.0	4.30299997	7.98600006	23.47200012
         110	1	37	3	0.0	4.07999992	10.02700043	24.77799988
         111	1	37	4	0.0	4.20300007	6.69199991	24.29299927
         112	1	38	1	0.0	1.31500006	10.11100006	24.45700073
         113	1	38	3	0.0	-0.53600001	8.58399963	24.37800026
         114	1	38	4	0.0	0.97399998	11.14700031	23.38800049
         115	1	39	1	0.0	-1.80700004	9.74400043	26.57799911
         116	1	39	3	0.0	-1.79400003	11.89299965	27.54500008
         117	1	39	4	0.0	-1.55700004	8.80900002	27.75200081
         118	1	40	1	0.0	-4.46899986	12.38300037	27.22500038
         119	1	40	3	0.0	-6.44500017	10.99100018	27.37400055
         120	1	40	4	0.0	-4.48600006	13.46899986	26.17200089
         121	1	41	1	0.0	-7.64799976	12.63000011	29.24699974
         122	1	41	3	0.0	-7.84299994	14.85099983	30.18300056
         123	1	41	4	0.0	-7.45200014	11.74199963	30.47500038
         124	1	42	1	0.0	-10.47299957	15.16100025	29.22800064
         125	1	42	3	0.0	-10.06900024	17.47500038	29.79299927
         126	1	42	4	0.0	-11.07299995	15.02999973	30.63699913
         127	1	43	1	0.0	-8.42399979	17.96299934	27.70199966
         128	1	43	3	0.0	-10.31099987	18.50699997	26.35199928
         129	1	43	4	0.0	-7.16400003	17.76600075	26.82299995
         130	1	44	1	0.0	-9.56200027	21.11400032	25.99099922
         131	1	44	3	0.0	-9.18799973	20.2840004	23.70599937
         132	1	44	4	0.0	-9.62300014	22.55900002	26.43400002
         133	1	45	1	0.0	-6.6329999	21.2159996	23.53199959
         134	1	45	3	0.0	-4.66499996	21.38299942	24.89100075
         135	1	45	4	0.0	-6.56500006	22.46699905	22.67700005
         136	1	46	1	0.0	-3.37700009	19.24500084	23.71299934
         137	1	46	3	0.0	-3.20900011	18.30400085	21.52099991
         138	1	46	4	0.0	-3.38800001	18.07299995	24.68899918
         139	1	47	1	0.0	-0.454	18.73800087	21.31500053
         140	1	47	3	0.0	1.42499995	18.69099998	22.79299927
         141	1	47	4	0.0	-0.071	19.85099983	20.34600067
         142	1	48	1	0.0	2.54299998	16.37599945	21.58399963
         143	1	48	3	0.0	2.80800009	15.81599998	19.3220005
         144	1	48	4	0.0	2.2650001	14.92800045	21.99900055
         145	1	49	1	0.0	5.36999989	16.50799942	18.99799919
         146	1	49	3	0.0	7.42199993	16.80699921	20.11599922
         147	1	49	4	0.0	5.00699997	17.71999931	18.13599968
         148	1	50	1	0.0	8.97299957	15.73600006	18.03700066
         149	1	50	3	0.0	8.81099987	15.34599972	15.6619997
         150	1	50	4	0.0	9.55700016	14.41300011	18.52099991
         151	1	51	1	0.0	10.67199993	17.35300064	15.08199978
         152	1	51	3	0.0	12.80000019	18.13899994	16.00099945
         153	1	51	5	0.0	10.20499992	16.03058919	12.82051075
         154	1	52	1	0.0	12.86999989	20.29599953	14.27700043
         155	1	52	3	0.0	11.46100044	22.09300041	13.61400032
         156	1	52	4	0.0	13.57499981	20.27099991	12.92099953
         157	1	53	1	0.0	12.58500004	23.90600014	15.39599991
         158	1	53	3	0.0	14.87899971	24.25699997	14.81400013
         159	1	53	4	0.0	12.41100025	24.36300087	16.83099937
         160	1	54	1	0.0	14.36299992	26.44799995	13.14099979
         161	1	54	3	0.0	13.65299988	28.36300087	14.41800022
         162	1	54	4	0.0	13.89099979	26.53899956	11.68700027
         163	1	55	1	0.0	15.81900024	29.90399933	13.71000004
         164	1	55	3	0.0	15.50800037	32.22999954	13.19200039
         165	1	55	4	0.0	17.34199905	30.11100006	13.73999977
         166	1	56	1	0.0	13.31599998	31.79500008	11.57600021
         167	1	56	3	0.0	13.70800018	33.80500031	10.38300037
         168	1	56	4	0.0	12.7130003	32.72200012	12.65299988
         169	1	57	1	0.0	15.77900028	32.86800003	8.86800003
         170	1	57	3	0.0	16.15099907	32.92300034	6.53200006
         171	1	57	4	0.0	17.30699921	32.85100174	9.17599964
         172	1	58	1	0.0	15.02200031	30.51799965	6.00099993
         173	1	58	3	0.0	12.80000019	29.69400024	6.32000017
         174	1	58	4	0.0	15.86900043	29.22200012	6.02799988
         175	1	59	1	0.0	12.2130003	29.76300049	3.60700011
         176	1	59	3	0.0	13.40499973	27.6590004	3.79500008
         177	1	59	4	0.0	12.08300018	30.17499924	2.13199997
         178	1	60	1	0.0	11.29500008	26.08399963	3.3039999
         179	1	60	3	0.0	12.94499969	24.6439991	2.33599997
         180	1	60	4	0.0	9.92300034	25.44799995	3.14599991
         181	1	61	1	0.0	13.23600006	26.03100014	-0.012
         182	1	61	3	0.0	15.47500038	25.23399925	0.1
         183	1	61	4	0.0	13.05900002	26.91900063	-1.23500001
         184	1	62	1	0.0	16.34600067	27.30400085	1.80900002
         185	1	62	3	0.0	17.81200027	25.69499969	2.7349999
         186	1	62	4	0.0	16.43099976	28.69400024	2.44799995
         187	1	63	1	0.0	16.00300026	24.6609993	4.5539999
         188	1	63	3	0.0	17.33699989	22.75200081	3.88800001
         189	1	63	4	0.0	14.7510004	24.37800026	5.41499996
         190	1	64	1	0.0	15.72000027	22.11199951	1.75199997
         191	1	64	3	0.0	13.47999954	21.45999908	2.51999998
         192	1	64	5	0.0	15.54899979	20.23386151	0.6964657
         193	1	65	1	0.0	13.6260004	19.05200005	1.12699997
         194	1	65	3	0.0	14.31999969	17.94599915	3.16300011
         195	1	65	4	0.0	14.00399971	17.95400047	0.127
         196	1	66	1	0.0	11.78999996	17.84399986	4.23000002
         197	1	66	3	0.0	9.88799953	16.77799988	3.22099996
         198	1	66	4	0.0	11.09899998	18.86899948	5.14499998
         199	1	67	1	0.0	10.50800037	14.30900002	4.45699978
         200	1	67	3	0.0	11.50699997	13.51099968	6.52699995
         201	1	67	4	0.0	11.11699963	13.39900017	3.38700008
         202	1	68	1	0.0	9.18799973	12.38399982	7.42500019
         203	1	68	3	0.0	7.63700008	10.75699997	6.61800003
         204	1	68	4	0.0	8.26099968	13.15200043	8.40100002
         205	1	69	1	0.0	9.0170002	8.57900047	7.68100023
         206	1	69	3	0.0	9.25800037	8.56700039	10.10200024
         207	1	69	4	0.0	10.1260004	7.67199993	7.21099997
         208	1	70	1	0.0	6.79099989	7.55900002	10.56799984
         209	1	70	3	0.0	5.44000006	5.73400021	9.64099979
         210	1	70	4	0.0	5.98199987	8.82199955	11.00800037
         211	1	71	1	0.0	4.69299984	4.91499996	12.18500042
         212	1	71	3	0.0	4.92299986	5.47200012	14.47700024
         213	1	71	5	0.0	5.62300014	3.38197396	10.84293003
         214	1	72	1	0.0	2.21099997	5.33900023	15.01500034
         215	1	72	3	0.0	0.20999999	4.20800018	14.32999992
         216	1	72	4	0.0	1.75300002	6.78700018	15.18200016
         217	1	73	1	0.0	-0.301	3.26900005	16.94000053
         218	1	73	3	0.0	-0.94800001	4.89499998	18.56900024
         219	1	73	4	0.0	0.095	2.33699989	18.07099915
         220	1	74	1	0.0	-3.05900002	5.89300013	17.10199928
         221	1	74	3	0.0	-5.23999977	4.92700005	16.81299973
         222	1	74	4	0.0	-3.07399988	6.80800009	15.88099957
         223	1	75	1	0.0	-5.9369998	5.34899998	19.49300003
         224	1	75	3	0.0	-6.78800011	6.55299997	21.40800095
         225	1	75	4	0.0	-5.61800003	4.24800014	20.50600052
         226	1	76	1	0.0	-8.08199978	8.40699959	19.93099976
         227	1	76	3	0.0	-9.97599983	6.94999981	19.76799965
         228	1	76	4	0.0	-8.23400021	9.3380003	18.74300003
         229	1	77	1	0.0	-11.34899998	8.28899956	21.8390007
         230	1	77	3	0.0	-12.09799957	10.48999977	22.54700089
         231	1	77	4	0.0	-11.43900013	7.82999992	23.27199936
         232	1	78	1	0.0	-12.95300007	11.23700047	20.06399918
         233	1	78	3	0.0	-11.33500004	11.39400005	18.25
         234	1	78	5	0.0	-12.39799976	11.3009621	19.07475693
         235	1	79	1	0.0	-11.36600018	14.17700005	18.28499985
         236	1	79	3	0.0	-9.3760004	14.64900017	19.55900002
         237	1	79	4	0.0	-11.99400043	15.55200005	18.46199989
         238	1	80	1	0.0	-7.67999983	13.93200016	17.52099991
         239	1	80	3	0.0	-7.81699991	13.34500027	15.23900032
         240	1	80	4	0.0	-7.12200022	12.82400036	18.39299965
         241	1	81	1	0.0	-5.23799992	14.26299953	14.64000034
         242	1	81	3	0.0	-3.12700009	13.93900013	15.73999977
         243	1	81	4	0.0	-4.98400021	15.67399979	14.07499981
         244	1	82	1	0.0	-2.102	12.34399986	13.61299992
         245	1	82	3	0.0	-2.13400006	12.90400028	11.25800037
         246	1	82	4	0.0	-2.0999999	10.84599972	13.375
         247	1	83	1	0.0	-0.084	14.69900036	11.46199989
         248	1	83	3	0.0	2.03900003	14.93700027	12.50899982
         249	1	83	4	0.0	-0.96600002	15.97399998	11.56499958
         250	1	84	1	0.0	2.96700001	16.62899971	10.45300007
         251	1	84	3	0.0	1.37300003	18.44199944	10.11299992
         252	1	84	4	0.0	3.85500002	16.51199913	9.22299957
         253	1	85	1	0.0	2.61100006	20.09000015	11.98799992
         254	1	85	3	0.0	4.88500023	20.54299927	12.51099968
         255	1	85	4	0.0	1.84500003	19.95800018	13.29800034
         256	1	86	1	0.0	4.546	23.29700089	12.35099983
         257	1	86	3	0.0	2.84100008	25.02499962	12.0340004
         258	1	86	5	0.0	3.54099989	21.88565803	11.96095903
         259	1	87	1	0.0	4.70800018	27.05200005	11.83399963
         260	1	87	3	0.0	6.89099979	27.27099991	10.81099987
         261	1	87	4	0.0	4.90100002	27.78700066	13.18500042
         262	1	88	1	0.0	6.18400002	29.75300026	9.64900017
         263	1	88	3	0.0	4.94299984	31.25799942	11.06799984
         264	1	88	4	0.0	5.97599983	30.00200081	8.16399956
         265	1	89	1	0.0	6.7579999	33.38800049	10.71199989
         266	1	89	3	0.0	7.55200005	34.06499863	8.49499989
         267	1	89	4	0.0	7.69299984	33.71099854	11.88599968
         268	1	90	1	0.0	6.34899998	36.56700134	8.64299965
         269	1	90	3	0.0	6.84499979	36.11999893	6.32800007
         270	1	90	4	0.0	7.7750001	37.14599991	8.70100021
         271	1	91	1	0.0	3.74099994	35.55099869	7.96799994
         272	1	91	3	0.0	4.17700005	33.2859993	8.70699978
         273	1	91	4	0.0	2.49399996	35.47399902	7.03399992
         274	1	92	1	0.0	2.73000002	33.68000031	11.0909996
         275	1	92	3	0.0	0.50700003	33.17100143	10.29399967
         276	1	92	4	0.0	2.23000002	34.36800003	12.35099983
         277	1	93	1	0.0	1.08599997	30.47900009	9.83100033
         278	1	93	3	0.0	2.46399999	28.80900002	10.84799957
         279	1	93	4	0.0	1.37600005	30.16399956	8.35499954
         280	1	94	1	0.0	0.29899999	27.20000076	11.64700031
         281	1	94	3	0.0	-1.08099997	26.54800034	9.85900021
         282	1	94	4	0.0	-0.65899998	27.11499977	12.8039999
         283	1	95	1	0.0	0.13	24.17200089	9.34000015
         284	1	95	3	0.0	0.65799999	22.28499985	10.75
         285	1	95	4	0.0	1.06400001	24.31800079	8.13099957
         286	1	96	1	0.0	-1.04900002	20.58399963	9.24800014
         287	1	96	3	0.0	-1.59000003	20.17300034	6.96999979
         288	1	96	4	0.0	-2.47600007	20.40800095	9.77400017
         289	1	97	1	0.0	-0.53399998	17.52400017	7.01499987
         290	1	97	3	0.0	-0.35100001	15.64999962	8.51099968
         291	1	97	4	0.0	0.78600001	17.20199966	6.33300018
         292	1	98	1	0.0	-3.1400001	15.12100029	8.40600014
         293	1	98	3	0.0	-3.99099994	13.71399975	6.72399998
         294	1	98	4	0.0	-4.53800011	15.6789999	8.72200012
         295	1	99	1	0.0	-2.82999992	11.39099979	7.79199982
         296	1	99	3	0.0	-4.41400003	9.61100006	7.85900021
         297	1	99	4	0.0	-1.49300003	10.66600037	7.81400013
         298	1	100	1	0.0	-5.29199982	10.1619997	10.41300011
         299	1	100	3	0.0	-5.45800018	12.12300014	11.7869997
         300	1	100	4	0.0	-4.88399982	8.82699966	11.05799961
         301	1	101	1	0.0	-7.94799995	11.52200031	12.76500034
         302	1	101	3	0.0	-8.88599968	9.40999985	13.23799992
         303	1	101	4	0.0	-8.74300003	12.59000015	12.01599979
         304	1	102	1	0.0	-10.51099968	10.31799984	15.29100037
         305	1	102	3	0.0	-12.09500027	9.8760004	13.54599953
         306	1	102	5	0.0	-9.60700035	8.89015377	15.4404847
         307	1	103	1	0.0	-14.27499962	10.75199986	14.93299961
         308	1	103	3	0.0	-15.71800041	11.91600037	13.44200039
         309	1	103	4	0.0	-15.20899963	10.85299969	16.16300011
         310	1	104	1	0.0	-14.03600025	13.97299957	12.90499973
         311	1	104	3	0.0	-11.79399967	14.63300037	12.41499996
         312	1	104	4	0.0	-14.36400032	15.17800045	13.77799988
         313	1	105	1	0.0	-12.21000004	14.68700027	9.64599991
         314	1	105	3	0.0	-13.10299969	16.85400009	9.35400009
         315	1	105	4	0.0	-12.56499958	14.1420002	8.27400017
         316	1	106	1	0.0	-10.77799988	18.20400047	9.89400005
         317	1	106	3	0.0	-10.38899994	17.98999977	7.56799984
         318	1	106	4	0.0	-9.43099976	18.36700058	10.64099979
         319	1	107	1	0.0	-10.98900032	21.01300049	9.35499954
         320	1	107	3	0.0	-12.50500011	22.74399948	10.04399967
         321	1	107	4	0.0	-9.86800003	22.01600075	8.98499966
         322	1	108	1	0.0	-14.66899967	21.72599983	8.57600021
         323	1	108	3	0.0	-15.78999996	23.65699959	7.8119998
         324	1	108	5	0.0	-13.31700039	20.08450227	8.58167826
         325	1	109	1	0.0	-14.0710001	24.14999962	5.69099998
         326	1	109	3	0.0	-14.19200039	22.40299988	4.07200003
         327	1	109	4	0.0	-12.84599972	25.05400085	5.82499981
         328	1	110	1	0.0	-14.52400017	24.15699959	1.91299999
         329	1	110	3	0.0	-12.31499958	24.91900063	1.48399997
         330	1	110	4	0.0	-15.22999954	25.33200073	1.18299997
         331	1	111	1	0.0	-11.50500011	22.70299911	0.1
         332	1	111	3	0.0	-11.93900013	24.27199936	-1.68099999
         333	1	111	4	0.0	-11.49800014	21.30699921	-0.50800002
         334	1	112	1	0.0	-9.26299953	24.99699974	-1.903
         335	1	112	3	0.0	-8.23700047	24.91900063	-4.0539999
         336	1	112	4	0.0	-8.17300034	25.87700081	-1.29400003
         337	1	113	1	0.0	-7.74100018	22.21100044	-4.00500011
         338	1	113	3	0.0	-7.84499979	20.48699951	-2.34899998
         339	1	113	5	0.0	-8.38000011	20.9158815	-5.101256
         340	1	114	1	0.0	-6.16800022	18.7670002	-3.81200004
         341	1	114	3	0.0	-4.29699993	19.19400024	-5.24800014
         342	1	114	4	0.0	-6.95699978	17.59199905	-4.46999979
         343	1	115	1	0.0	-2.69499993	17.32900047	-3.82200003
         344	1	115	3	0.0	-3.06200004	15.1619997	-2.84299994
         345	1	115	4	0.0	-1.61199999	17.91200066	-2.88800001
         346	1	116	1	0.0	-1.70799994	13.80799961	-4.82999992
         347	1	116	3	0.0	0.65499997	14.25500011	-5.16499996
         348	1	116	4	0.0	-2.04299998	12.98999977	-6.07200003
         349	1	117	1	0.0	1.43400002	12.66899967	-3.06100011
         350	1	117	3	0.0	0.46399999	11.20300007	-1.40499997
         351	1	117	4	0.0	1.95899999	13.92099953	-2.33299994
         352	1	118	1	0.0	2.83200002	9.72099972	-1.11800003
         353	1	118	3	0.0	1.37699997	8.0710001	-0.14399999
         354	1	118	4	0.0	2.94499993	10.27000046	0.31
         355	1	119	1	0.0	0.26899999	7.329	-2.55800009
         356	1	119	3	0.0	-2.00399995	6.88399982	-2.12199998
         357	1	119	5	0.0	1.28499997	5.63570641	-2.88267036
         358	1	120	1	0.0	-2.65799999	9.37199974	-1.21099997
         359	1	120	3	0.0	-2.50099993	11.17500019	-2.81100011
         360	1	120	5	0.0	-1.32700002	8.39200948	-0.25308155
         361	1	121	1	0.0	-5.02600002	12.18599987	-2.12800002
         362	1	121	3	0.0	-6.19399977	12.57999992	-0.076
         363	1	121	4	0.0	-6.26599979	11.90999985	-2.98399997
         364	1	122	1	0.0	-5.29799986	15.17599964	0.19499999
         365	1	122	3	0.0	-5.68900013	17.02300072	-1.29299998
         366	1	122	4	0.0	-3.977	15.67700005	0.815
         367	1	123	1	0.0	-7.84600019	17.95400047	0.259
         368	1	123	3	0.0	-6.51499987	18.85000038	2.0309999
         369	1	123	4	0.0	-9.2510004	17.83600044	0.796
         370	1	124	1	0.0	-6.26200008	21.35400009	0.84399998
         371	1	124	3	0.0	-8.18599987	22.73500061	0.71899998
         372	1	124	4	0.0	-5.32999992	21.94799995	-0.22499999
         373	1	125	1	0.0	-7.81500006	23.95400047	3.15899992
         374	1	125	3	0.0	-5.86800003	24.90500069	4.18900013
         375	1	125	4	0.0	-8.64299965	23.35000038	4.33199978
         376	1	126	1	0.0	-7.15999985	27.35700035	4.70900011
         377	1	126	3	0.0	-9.31700039	28.06200027	5.29500008
         378	1	126	4	0.0	-6.82600021	28.48900032	3.74900007
         379	1	127	1	0.0	-8.81499958	28.39900017	7.99900007
         380	1	127	3	0.0	-6.954	29.75300026	8.56999969
         381	1	127	4	0.0	-9.2670002	27.2840004	8.95600033
         382	1	128	1	0.0	-8.38500023	31.31900024	10.40699959
         383	1	128	3	0.0	-9.61600018	30.71299934	12.33399963
         384	1	128	4	0.0	-9.17199993	32.54399872	9.98200035
         385	1	129	1	0.0	-7.59600019	31.43799973	14.14299965
         386	1	129	3	0.0	-6.78900003	33.7140007	14.09000015
         387	1	129	4	0.0	-6.421	30.66799927	14.72599983
         388	1	130	1	0.0	-8.70300007	34.71099854	15.81700039
         389	1	130	3	0.0	-9.02999973	34.27899933	18.15299988
         390	1	130	4	0.0	-10.11600018	35.20700073	15.54399967
         391	1	131	1	0.0	-6.9000001	35.84600067	18.98699951
         392	1	131	3	0.0	-7.30499983	34.35699844	20.82099915
         393	1	131	4	0.0	-7.86399984	36.81399918	19.70599937
         394	1	132	1	0.0	-5.74399996	32.31999969	19.88100052
         395	1	132	3	0.0	-3.40899992	32.89300156	19.73600006
         396	1	132	4	0.0	-6.11299992	31.13400078	18.94400024
         397	1	133	1	0.0	-2.56100011	30.90800095	21.39699936
         398	1	133	3	0.0	-2.22199988	30.06999969	19.17499924
         399	1	133	4	0.0	-2.60899997	29.69799995	22.29400063
         400	1	134	1	0.0	0.442	30.80699921	19.1079998
         401	1	134	3	0.0	2.04299998	31.06200027	20.85700035
         402	1	134	4	0.0	0.37099999	31.79000092	17.96699905
         403	1	135	1	0.0	4.22100019	30.41699982	19.17499924
         404	1	135	3	0.0	5.80100012	32.11500168	19.91699982
         405	1	135	4	0.0	5.0539999	29.8579998	18.00799942
         406	1	136	1	0.0	4.28100014	34.25699997	19.22900009
         407	1	136	3	0.0	3.01200008	36.17499924	19.74600029
         408	1	136	4	0.0	4.46099997	34.88700104	17.84600067
         409	1	137	1	0.0	1.5	34.99399948	21.75499916
         410	1	137	3	0.0	-0.134	34.35300064	20.04299927
         411	1	137	5	0.0	2.54500008	33.37162432	21.50088336
         412	1	138	1	0.0	-2.24099994	35.57899857	21.35300064
         413	1	138	3	0.0	-1.83700001	37.47600174	19.92300034
         414	1	138	4	0.0	-3.148	36.29899979	22.35099983
         415	1	139	1	0.0	-2.5539999	36.12099838	17.64800072
         416	1	139	3	0.0	-4.37699986	34.70700073	17.03800011
         417	1	139	4	0.0	-1.20599997	35.71500015	17.03199959
         418	1	140	1	0.0	-4.75500011	36.00299835	14.60299969
         419	1	140	3	0.0	-2.977	36.2140007	13.11200047
         420	1	140	4	0.0	-5.67799997	37.17699814	14.26099968
         421	1	141	1	0.0	-3.2579999	33.71300125	11.97000027
         422	1	141	3	0.0	-5.01900005	32.11800003	11.64999962
         423	1	141	4	0.0	-2.04699993	33.02999878	12.63500023
         424	1	142	1	0.0	-4.07600021	31.32099915	9.1960001
         425	1	142	3	0.0	-2.4230001	29.82900047	10.06799984
         426	1	142	4	0.0	-3.71099997	31.51799965	7.73000002
         427	1	143	1	0.0	-3.98000002	27.55999947	9.45699978
         428	1	143	3	0.0	-5.02799988	27.1439991	7.37900019
         429	1	143	4	0.0	-4.98899984	26.78499985	10.33600044
         430	1	144	1	0.0	-2.95799994	25.66399956	6.30499983
         431	1	144	3	0.0	-2.42499995	23.61400032	7.44199991
         432	1	144	4	0.0	-1.73300004	25.9659996	5.454
         433	1	145	1	0.0	-4.0619998	22.05400085	5.84100008
         434	1	145	3	0.0	-4.47200012	21.64299965	3.45900011
         435	1	145	4	0.0	-5.5	21.72900009	6.31699991
         436	1	146	1	0.0	-3.5769999	18.98200035	3.69300008
         437	1	146	3	0.0	-3.60299993	17.51399994	5.51800013
         438	1	146	4	0.0	-2.28699994	18.49600029	3.05599999
         439	1	147	1	0.0	-6.00299978	16.24099922	4.90999985
         440	1	147	3	0.0	-6.87400007	15.16399956	2.97300005
         441	1	147	4	0.0	-7.30800009	16.72699928	5.54099989
         442	1	148	1	0.0	-5.77199984	12.69999981	3.50699997
         443	1	148	3	0.0	-8.02600002	12.52999973	4.29199982
         444	1	148	4	0.0	-4.94799995	11.56200027	4.10699987
         445	1	149	1	0.0	-8.99199963	11.28600025	2.07599998
         446	1	149	3	0.0	-10.46100044	9.73900032	3.13000011
         447	1	149	4	0.0	-9.43999958	11.21199989	0.616
         448	1	150	1	0.0	-8.52099991	7.95499992	3.875
         449	1	150	3	0.0	-6.30800009	8.38700008	4.62699986
         450	1	150	4	0.0	-8.50500011	6.69099998	2.99600005
         451	1	151	1	0.0	-6.71199989	7.36600018	7.16599989
         452	1	151	3	0.0	-5.73099995	5.34399986	6.36600018
         453	1	151	4	0.0	-7.41499996	6.93499994	8.46399975
         454	1	152	1	0.0	-3.26900005	5.85300016	7.5079999
         455	1	152	3	0.0	-2.52099991	7.46299982	9.11800003
         456	1	152	4	0.0	-2.43099999	5.69700003	6.25400019
         457	1	153	1	0.0	-0.93300003	5.64900017	10.49400043
         458	1	153	3	0.0	1.24800003	5.16599989	11.3739996
         459	1	153	4	0.0	-1.53499997	5.05299997	11.79599953
         460	1	154	1	0.0	2.43899989	4.82700014	8.94799995
         461	1	154	3	0.0	1.87300003	5.03999996	6.62900019
         462	1	154	4	0.0	2.90700006	3.39299989	9.2670002
         463	1	155	1	0.0	4.36600018	5.829	5.8130002
         464	1	155	3	0.0	5.90500021	7.39099979	6.796
         465	1	155	5	0.0	3.97199988	4.98834697	4.16827073
         466	1	156	1	0.0	6.27199984	8.7510004	4.36199999
         467	1	156	3	0.0	4.56699991	9.82900047	3.08299994
         468	1	156	4	0.0	7.35200024	8.47000027	3.29900002
         469	1	157	1	0.0	5.0619998	12.35200024	4.19199991
         470	1	157	3	0.0	7.04899979	13.68400002	4.23099995
         471	1	157	4	0.0	4.42799997	13.02900028	5.41300011
         472	1	158	1	0.0	6.94999981	14.43999958	1.56799996
         473	1	158	3	0.0	5.65700006	16.44199944	1.15199995
         474	1	158	4	0.0	6.72399998	14.14500046	0.076
         475	1	159	1	0.0	6.41099977	17.67499924	3.50399995
         476	1	159	3	0.0	5.64599991	19.58799934	2.28600001
         477	1	159	4	0.0	7.18900013	18.08099937	4.77799988
         478	1	160	1	0.0	7.96199989	19.97900009	0.91100001
         479	1	160	3	0.0	6.70800018	21.03199959	-0.778
         480	1	160	4	0.0	9.43900013	19.97200012	0.45899999
         481	1	161	1	0.0	5.55000019	18.74200058	-1.78199995
         482	1	161	3	0.0	3.65400004	20.18899918	-2.1500001
         483	1	161	4	0.0	5.27099991	17.31900024	-2.22300005
         484	1	162	1	0.0	2.6789999	19.96500015	0.37200001
         485	1	162	3	0.0	2.04900002	22.23399925	-0.056
         486	1	162	4	0.0	2.3599999	19.51600075	1.80499995
         487	1	163	1	0.0	4.36299992	23.3579998	0.83999997
         488	1	163	3	0.0	3.7579999	25.0739994	-0.73000002
         489	1	163	4	0.0	5.76499987	23.61700058	1.42499995
         490	1	164	1	0.0	4.74700022	23.77700043	-2.93799996
         491	1	164	3	0.0	2.88700008	24.75600052	-4.13199997
         492	1	164	4	0.0	5.64900017	22.95000076	-3.86299992
         493	1	165	1	0.0	1.06599998	22.88899994	-3.47000003
         494	1	165	3	0.0	-0.389	24.85199928	-3.48399997
         495	1	165	4	0.0	0.366	21.61000061	-3.06999993
         496	1	166	1	0.0	0.025	25.43199921	-0.82999998
         497	1	166	3	0.0	-0.39199999	27.59300041	-1.80599999
         498	1	166	4	0.0	0.37400001	25.41699982	0.65499997
         499	1	167	1	0.0	2.23000002	28.14800072	-2.36199999
         500	1	167	3	0.0	1.29100001	29.38299942	-4.21500015
         501	1	167	4	0.0	3.74699998	28.14299965	-2.3900001