ITEM: TIMESTEP
0
ITEM: NUMBER OF ATOMS
621
ITEM: BOX BOUNDS ss ss ss
-15.83 21.948
2.297 37.516
-6.561 33.178
ITEM: ATOMS id type xs ys zs
1 1 0.742125 0.281751 0.918418
2 3 0.681428 0.266532 0.895493
3 4 0.751813 0.241035 0.907547
4 1 0.642014 0.282461 0.956265
5 3 0.643046 0.345722 0.975868
6 4 0.634073 0.259519 0.987871
7 1 0.591747 0.370709 0.930698
8 3 0.532982 0.351089 0.915549
9 4 0.602891 0.387518 0.896525
10 1 0.5009 0.391749 0.967186
11 3 0.458018 0.438258 0.982133
12 4 0.490815 0.369545 0.998993
13 1 0.498385 0.499049 0.958429
14 3 0.544047 0.503734 0.918116
15 4 0.505559 0.518442 0.992199
16 1 0.523956 0.574747 0.894285
17 3 0.578591 0.587155 0.922796
18 4 0.509741 0.615435 0.891467
19 1 0.619964 0.560124 0.870782
20 3 0.616311 0.543031 0.812376
21 4 0.630843 0.523013 0.888019
22 1 0.682011 0.578353 0.797831
23 3 0.736831 0.583549 0.826644
24 4 0.681428 0.618501 0.782757
25 1 0.773016 0.534087 0.787111
26 3 0.767325 0.504983 0.73175
27 5 0.735402 0.501868 0.770281
28 1 0.831674 0.469235 0.737009
29 3 0.853089 0.431216 0.781952
30 4 0.863995 0.488543 0.721659
31 1 0.83231 0.36256 0.753944
32 3 0.828313 0.32985 0.699665
33 4 0.798984 0.348391 0.772138
34 1 0.893589 0.295522 0.707617
35 3 0.889459 0.290468 0.647198
36 4 0.874557 0.257049 0.710285
37 1 0.905871 0.368494 0.637711
38 3 0.873471 0.408047 0.599537
39 5 0.902774 0.351297 0.587744
40 1 0.808036 0.391607 0.624022
41 3 0.795304 0.419717 0.677093
42 4 0.782201 0.357222 0.620851
43 1 0.76346 0.483489 0.651853
44 3 0.705755 0.458531 0.640177
45 4 0.760601 0.520003 0.631294
46 1 0.687993 0.44794 0.706736
47 3 0.68119 0.507964 0.735625
48 4 0.690269 0.415429 0.73253
49 1 0.608502 0.503876 0.73789
50 3 0.559347 0.459837 0.731548
51 4 0.599396 0.538374 0.716626
52 1 0.530123 0.483631 0.794811
53 3 0.527609 0.547119 0.814263
54 4 0.535391 0.464295 0.828531
55 1 0.459103 0.560237 0.789879
56 3 0.404151 0.528124 0.778278
57 4 0.46093 0.586388 0.7586
58 1 0.367568 0.564667 0.829789
59 3 0.375324 0.623186 0.859408
60 4 0.358304 0.532326 0.853444
61 1 0.302795 0.639144 0.859961
62 3 0.295992 0.587382 0.900803
63 4 0.27389 0.658735 0.839704
64 1 0.256896 0.629092 0.944941
65 3 0.208163 0.595758 0.918845
66 4 0.241887 0.662199 0.966355
67 1 0.206231 0.541639 0.971187
68 3 0.238684 0.501491 0.932661
69 5 0.231034 0.497151 0.931945
70 1 0.218355 0.435305 0.96545
71 3 0.275795 0.448934 0.989356
72 5 0.208455 0.371065 0.902887
73 1 0.307057 0.388029 0.961474
74 3 0.302398 0.351969 0.910164
75 4 0.308857 0.361027 0.992073
76 1 0.376939 0.350124 0.904275
77 3 0.427656 0.353076 0.940386
78 5 0.357033 0.314749 0.823795
79 1 0.458071 0.288197 0.910491
80 3 0.463709 0.255459 0.858149
81 4 0.454444 0.252591 0.93329
82 1 0.531367 0.285755 0.845316
83 3 0.581926 0.281127 0.881351
84 4 0.540288 0.322695 0.827424
85 1 0.607338 0.215423 0.853167
86 3 0.624596 0.205713 0.79617
87 4 0.600058 0.174224 0.862654
88 1 0.688522 0.243363 0.801731
89 3 0.730187 0.197365 0.820932
90 4 0.711658 0.277549 0.809331
91 1 0.727407 0.154831 0.760613
92 3 0.764731 0.196343 0.727673
93 4 0.701652 0.123768 0.749843
94 1 0.807931 0.140805 0.703163
95 3 0.772751 0.157273 0.654798
96 4 0.825427 0.102076 0.695387
97 1 0.823019 0.205912 0.628149
98 3 0.783472 0.252648 0.649815
99 5 0.825639 0.192056 0.569135
100 1 0.737281 0.250007 0.596165
101 3 0.675711 0.246231 0.610811
102 5 0.769257 0.262182 0.554252
103 1 0.680211 0.1803 0.645487
104 3 0.688469 0.212669 0.699061
105 4 0.686431 0.136801 0.645965
106 1 0.617688 0.197677 0.717104
107 3 0.566785 0.165252 0.695236
108 4 0.612791 0.240921 0.717909
109 1 0.532929 0.161532 0.755756
110 3 0.527026 0.219484 0.788621
111 4 0.530282 0.124791 0.776416
112 1 0.453836 0.221869 0.780543
113 3 0.404839 0.178512 0.778555
114 4 0.444809 0.251285 0.753643
115 1 0.371195 0.211448 0.833916
116 3 0.371539 0.272467 0.85825
117 4 0.377812 0.1849 0.863459
118 1 0.300731 0.28638 0.850198
119 3 0.248425 0.246855 0.853947
120 4 0.300281 0.317215 0.8237
121 1 0.216581 0.293393 0.90108
122 3 0.211419 0.356455 0.924633
123 4 0.221769 0.268179 0.931981
124 1 0.141802 0.365257 0.900601
125 3 0.152496 0.430961 0.914819
126 4 0.12592 0.361538 0.936058
127 1 0.19604 0.444817 0.862201
128 3 0.14609 0.460263 0.828229
129 4 0.229393 0.439223 0.840082
130 1 0.165917 0.534285 0.819145
131 3 0.175817 0.510719 0.761645
132 4 0.164302 0.575314 0.830293
133 1 0.243449 0.537182 0.757266
134 3 0.295542 0.541923 0.791464
135 4 0.245249 0.572702 0.735751
136 1 0.329636 0.481218 0.761821
137 3 0.334083 0.454499 0.706661
138 4 0.329345 0.44794 0.786381
139 1 0.407009 0.466822 0.701477
140 3 0.456747 0.465487 0.73867
141 4 0.417148 0.498424 0.677093
142 1 0.486341 0.399756 0.708246
143 3 0.493356 0.383855 0.651325
144 4 0.478982 0.358642 0.718689
145 1 0.561173 0.403504 0.643172
146 3 0.61549 0.411993 0.671305
147 4 0.551564 0.437917 0.62148
148 1 0.656546 0.381584 0.618989
149 3 0.652258 0.37051 0.559224
150 4 0.672005 0.344019 0.631168
151 1 0.701519 0.427497 0.544629
152 3 0.757848 0.449814 0.567755
153 5 0.689158 0.389948 0.48772
154 1 0.759701 0.511059 0.524372
155 3 0.722405 0.562083 0.507688
156 4 0.778363 0.51035 0.490249
157 1 0.752157 0.613561 0.55253
158 3 0.81288 0.623527 0.537885
159 4 0.747551 0.626537 0.588641
160 1 0.799222 0.685738 0.495785
161 3 0.780428 0.740112 0.52792
162 4 0.786728 0.688322 0.459196
163 1 0.837763 0.783867 0.510103
164 3 0.82953 0.849911 0.497068
165 4 0.878077 0.789744 0.510858
166 1 0.771507 0.837559 0.456403
167 3 0.781884 0.894631 0.426382
168 4 0.755546 0.86388 0.483505
169 1 0.836704 0.868026 0.388258
170 3 0.846551 0.869587 0.329475
171 4 0.877151 0.867543 0.396009
172 1 0.816666 0.8013 0.316113
173 3 0.757848 0.777904 0.32414
174 4 0.839086 0.764502 0.316792
175 1 0.74231 0.779863 0.25587
176 3 0.773863 0.720123 0.2606
177 4 0.738869 0.791561 0.218752
178 1 0.71801 0.675402 0.248245
179 3 0.761687 0.634515 0.223886
180 4 0.681693 0.657344 0.244269
181 1 0.76939 0.673898 0.1648
182 3 0.828657 0.651268 0.167619
183 4 0.764704 0.699111 0.134025
184 1 0.851713 0.710043 0.210624
185 3 0.890518 0.664357 0.233926
186 4 0.853963 0.74951 0.226704
187 1 0.842633 0.634998 0.2797
188 3 0.877945 0.580794 0.262941
189 4 0.809492 0.626963 0.301366
190 1 0.835142 0.562622 0.20919
191 3 0.775848 0.54411 0.228516
192 5 0.830616 0.509295 0.182628
193 1 0.779713 0.475738 0.193462
194 3 0.798084 0.444334 0.244697
195 4 0.789719 0.444561 0.168298
196 1 0.731113 0.441438 0.271547
197 3 0.680767 0.41117 0.246156
198 4 0.712822 0.470541 0.294572
199 1 0.697178 0.341066 0.277259
200 3 0.723622 0.318408 0.329349
201 4 0.713299 0.315228 0.250333
202 1 0.662237 0.286408 0.351946
203 3 0.621182 0.240211 0.331639
204 4 0.637699 0.308214 0.376507
205 1 0.657711 0.17837 0.358388
206 3 0.66409 0.178029 0.419311
207 4 0.687067 0.152616 0.346561
208 1 0.598788 0.149408 0.431038
209 3 0.563026 0.0975894 0.40771
210 4 0.577373 0.185269 0.44211
211 1 0.543253 0.0743349 0.471728
212 3 0.549341 0.0901502 0.529404
213 5 0.56787 0.0308065 0.437956
214 1 0.477553 0.0863738 0.542943
215 3 0.424586 0.0542605 0.525705
216 4 0.46543 0.127488 0.547145
217 1 0.411059 0.0275987 0.591384
218 3 0.393933 0.073767 0.632376
219 4 0.421542 0.00113575 0.619844
220 1 0.338054 0.102104 0.59546
221 3 0.280322 0.0746756 0.588188
222 4 0.337657 0.128084 0.564735
223 1 0.261872 0.0866578 0.655628
224 3 0.239346 0.120844 0.703817
225 4 0.270316 0.0553962 0.681119
226 1 0.205093 0.173486 0.66665
227 3 0.154958 0.132116 0.662548
228 4 0.201069 0.19992 0.636755
229 1 0.118614 0.170135 0.714663
230 3 0.0987877 0.23263 0.732479
231 4 0.116232 0.157103 0.750723
232 1 0.0761554 0.25384 0.669997
233 3 0.118985 0.258298 0.624349
234 5 0.0908465 0.255656 0.645103
235 1 0.118164 0.337318 0.62523
236 3 0.17084 0.35072 0.657289
237 4 0.101541 0.376359 0.629684
238 1 0.215734 0.330361 0.606004
239 3 0.212108 0.313694 0.548579
240 4 0.230505 0.298901 0.627947
241 1 0.280375 0.33976 0.533506
242 3 0.336254 0.33056 0.561187
243 4 0.287098 0.379823 0.519288
244 1 0.363386 0.285272 0.507662
245 3 0.362539 0.301173 0.448401
246 4 0.363439 0.242738 0.501673
247 1 0.416803 0.352139 0.453534
248 3 0.473 0.358897 0.479881
249 4 0.393456 0.388342 0.456126
250 1 0.497565 0.406939 0.428144
251 3 0.455371 0.458417 0.419588
252 4 0.52107 0.403617 0.397192
253 1 0.488141 0.50521 0.466771
254 3 0.548335 0.518073 0.479932
255 4 0.467865 0.501462 0.499736
256 1 0.539362 0.596269 0.475905
257 3 0.494229 0.645333 0.467928
258 5 0.512759 0.556196 0.46609
259 1 0.54365 0.702888 0.462895
260 3 0.601435 0.709106 0.437152
261 4 0.548759 0.723757 0.496892
262 1 0.58272 0.779579 0.407912
263 3 0.54987 0.822312 0.44362
264 4 0.577214 0.786649 0.370543
265 1 0.597914 0.882791 0.434661
266 3 0.618932 0.902013 0.378872
267 4 0.622664 0.891962 0.464204
268 1 0.587088 0.973054 0.382596
269 3 0.600217 0.960362 0.324341
270 4 0.624835 0.989494 0.384056
271 1 0.518053 0.944206 0.365611
272 3 0.529594 0.879894 0.384207
273 4 0.485044 0.94202 0.342107
274 1 0.491291 0.891081 0.444198
275 3 0.432447 0.876629 0.424143
276 4 0.478056 0.910616 0.475905
277 1 0.447774 0.800193 0.412492
278 3 0.48425 0.752775 0.438083
279 4 0.45545 0.791249 0.375349
280 1 0.426942 0.70709 0.45819
281 3 0.390412 0.688577 0.413196
282 4 0.401583 0.704676 0.487305
283 1 0.422468 0.621114 0.400136
284 3 0.436444 0.567535 0.435617
285 4 0.447191 0.625259 0.369712
286 1 0.391259 0.519237 0.397821
287 3 0.376939 0.507567 0.340497
288 4 0.353486 0.514239 0.411057
289 1 0.404892 0.432352 0.341629
290 3 0.409736 0.379142 0.379275
291 4 0.439833 0.423209 0.324467
292 1 0.33591 0.364122 0.376633
293 3 0.313383 0.324172 0.334306
294 4 0.298904 0.379965 0.384584
295 1 0.344116 0.258213 0.361182
296 3 0.302186 0.207672 0.362868
297 4 0.379507 0.237627 0.361735
298 1 0.278945 0.223317 0.427137
299 3 0.274551 0.278997 0.461713
300 4 0.289745 0.185411 0.443368
301 1 0.20864 0.261932 0.486323
302 3 0.183811 0.201965 0.498226
303 4 0.187596 0.292257 0.467475
304 1 0.140796 0.227746 0.549888
305 3 0.0988671 0.215196 0.505976
306 5 0.164725 0.187204 0.55365
307 1 0.0411615 0.240069 0.540879
308 3 0.00296468 0.27312 0.503359
309 4 0.0164381 0.242937 0.571831
310 1 0.0474879 0.331526 0.489846
311 3 0.106835 0.350265 0.477516
312 4 0.0388056 0.36574 0.511815
313 1 0.095823 0.351799 0.407836
314 3 0.0721849 0.413328 0.400488
315 4 0.086426 0.336324 0.373311
316 1 0.133729 0.45166 0.414077
317 3 0.144026 0.445583 0.355545
318 4 0.169384 0.456288 0.432874
319 1 0.128143 0.531418 0.400513
320 3 0.0880142 0.580567 0.417851
321 4 0.157817 0.559897 0.391203
322 1 0.0307322 0.551662 0.38091
323 3 0.00105882 0.606491 0.361685
324 5 0.0665202 0.505054 0.381053
325 1 0.0465615 0.620489 0.308312
326 3 0.0433586 0.570885 0.267571
327 4 0.0789878 0.646157 0.311684
328 1 0.0345704 0.620688 0.213241
329 3 0.0930436 0.642324 0.202446
330 4 0.0158823 0.65405 0.194872
331 1 0.114485 0.579403 0.167619
332 3 0.102996 0.623953 0.122801
333 4 0.11467 0.539765 0.152319
334 1 0.173831 0.644538 0.117215
335 3 0.20099 0.642324 0.0630866
336 4 0.202684 0.669525 0.13254
337 1 0.214119 0.565433 0.0643197
338 3 0.211366 0.516483 0.105992
339 5 0.197205 0.52866 0.0367333
340 1 0.255757 0.467645 0.0691764
341 3 0.305283 0.479769 0.0330406
342 4 0.234872 0.434283 0.0526183
343 1 0.347689 0.426815 0.0689247
344 3 0.337974 0.365286 0.0935605
345 4 0.376357 0.443369 0.0924281
346 1 0.373815 0.326841 0.0435592
347 3 0.436365 0.339533 0.0351292
348 4 0.364948 0.303615 0.0123053
349 1 0.456986 0.2945 0.0880747
350 3 0.431309 0.252875 0.129747
351 4 0.470883 0.330049 0.106394
352 1 0.493991 0.210795 0.136969
353 3 0.455477 0.163946 0.161479
354 4 0.496982 0.226383 0.172903
355 1 0.426147 0.142877 0.100732
356 3 0.36598 0.130242 0.111704
357 5 0.453041 0.0947984 0.0925622
358 1 0.348669 0.200886 0.134628
359 3 0.352824 0.25208 0.0943657
360 5 0.383901 0.17306 0.158734
361 1 0.285987 0.280786 0.111553
362 3 0.255069 0.291973 0.16319
363 4 0.253163 0.272949 0.0900123
364 1 0.278787 0.365683 0.170009
365 3 0.268437 0.418127 0.132565
366 4 0.313754 0.379909 0.185611
367 1 0.21134 0.444561 0.17162
368 3 0.246572 0.470002 0.216211
369 4 0.174149 0.441211 0.185133
370 1 0.253269 0.5411 0.186341
371 3 0.20234 0.580312 0.183195
372 4 0.27794 0.557966 0.15944
373 1 0.212161 0.614924 0.244596
374 3 0.263698 0.641926 0.270515
375 4 0.190243 0.597774 0.274114
376 1 0.229499 0.711548 0.2836
377 3 0.172402 0.731565 0.298347
378 4 0.23834 0.743689 0.259443
379 1 0.18569 0.741134 0.366391
380 3 0.234952 0.779579 0.380759
381 4 0.173725 0.709475 0.390473
382 1 0.197072 0.824044 0.426986
383 3 0.164487 0.806837 0.475477
384 4 0.17624 0.858826 0.416291
385 1 0.217958 0.827423 0.521
386 3 0.239319 0.892047 0.519666
387 4 0.24906 0.805559 0.53567
388 1 0.188655 0.920355 0.563124
389 3 0.179999 0.908089 0.621908
390 4 0.151252 0.934439 0.556255
391 1 0.236381 0.952582 0.642895
392 3 0.22566 0.910304 0.689046
393 4 0.210863 0.980068 0.660988
394 1 0.266981 0.852466 0.665392
395 3 0.328789 0.868736 0.661743
396 4 0.257213 0.818791 0.641813
397 1 0.351236 0.812374 0.703541
398 3 0.36021 0.78858 0.647626
399 4 0.349966 0.778018 0.726113
400 1 0.430727 0.809506 0.64594
401 3 0.473106 0.816747 0.689952
402 4 0.428847 0.837417 0.617227
403 1 0.530759 0.798433 0.647626
404 3 0.572582 0.846645 0.666298
405 4 0.552808 0.782561 0.618259
406 1 0.532347 0.907465 0.648985
407 3 0.498756 0.961924 0.661995
408 4 0.537112 0.925353 0.614183
409 1 0.458733 0.928391 0.712549
410 3 0.41548 0.91019 0.669468
411 5 0.486394 0.882326 0.706155
412 1 0.359707 0.945001 0.702433
413 3 0.370401 0.998864 0.666449
414 4 0.335698 0.965445 0.727547
415 1 0.351421 0.960391 0.6092
416 3 0.303166 0.920242 0.59385
417 4 0.387104 0.948863 0.593699
418 1 0.29316 0.95704 0.532575
419 3 0.340224 0.963031 0.495055
420 4 0.268728 0.990374 0.523969
421 1 0.332786 0.892019 0.466318
422 3 0.286172 0.84673 0.458265
423 4 0.364842 0.872625 0.483052
424 1 0.311133 0.824101 0.396512
425 3 0.354889 0.781737 0.418455
426 4 0.320795 0.829694 0.359622
427 1 0.313675 0.717312 0.40308
428 3 0.285934 0.7055 0.350789
429 4 0.286966 0.695306 0.425199
430 1 0.340727 0.663477 0.323763
431 3 0.354836 0.60527 0.352374
432 4 0.373154 0.672052 0.302348
433 1 0.311504 0.560976 0.312086
434 3 0.300651 0.549306 0.252145
435 4 0.27344 0.551748 0.324065
436 1 0.324342 0.47375 0.258034
437 3 0.323654 0.432068 0.303958
438 4 0.358489 0.459951 0.242004
439 1 0.260125 0.395923 0.288658
440 3 0.237069 0.365343 0.239915
441 4 0.225581 0.409722 0.304537
442 1 0.26624 0.29538 0.253353
443 3 0.206575 0.290553 0.273107
444 4 0.288051 0.263068 0.268452
445 1 0.181005 0.255232 0.217343
446 3 0.14212 0.211306 0.243866
447 4 0.169146 0.25313 0.180603
448 1 0.193472 0.160652 0.262614
449 3 0.252051 0.172918 0.281537
450 4 0.193896 0.124762 0.240494
451 1 0.241357 0.143928 0.345429
452 3 0.267325 0.0865158 0.325298
453 4 0.222749 0.13169 0.378092
454 1 0.332495 0.100968 0.354035
455 3 0.352295 0.146682 0.394549
456 4 0.354677 0.0965388 0.322479
457 1 0.39433 0.0951759 0.429175
458 3 0.452062 0.0814617 0.45132
459 4 0.378395 0.0782532 0.461939
460 1 0.483588 0.0718362 0.390272
461 3 0.468606 0.0778841 0.331916
462 4 0.495976 0.0311196 0.398299
463 1 0.534597 0.100287 0.311382
464 3 0.575335 0.144638 0.336118
465 5 0.524167 0.0764175 0.269993
466 1 0.585049 0.183253 0.274869
467 3 0.539917 0.213862 0.242684
468 4 0.613638 0.175275 0.248119
469 1 0.55302 0.285499 0.270591
470 3 0.605617 0.32332 0.271572
471 4 0.536238 0.304722 0.301316
472 1 0.602996 0.344785 0.20456
473 3 0.56877 0.40163 0.194091
474 4 0.597014 0.336409 0.167015
475 1 0.588729 0.436639 0.253278
476 3 0.568479 0.490957 0.222628
477 4 0.609323 0.448167 0.285337
478 1 0.629785 0.502059 0.188027
479 3 0.596591 0.531957 0.145525
480 4 0.668881 0.50186 0.176653
481 1 0.565938 0.466935 0.12026
482 3 0.51575 0.508021 0.110999
483 4 0.558553 0.426531 0.109162
484 1 0.489941 0.501661 0.174463
485 3 0.473265 0.566086 0.163693
486 4 0.481497 0.488912 0.210524
487 1 0.534517 0.598001 0.18624
488 3 0.518503 0.646725 0.146732
489 4 0.571629 0.605355 0.200961
490 1 0.544682 0.609898 0.0911699
491 3 0.495447 0.637696 0.0611238
492 4 0.568558 0.586416 0.067893
493 1 0.447244 0.584684 0.0777825
494 3 0.40873 0.640421 0.0774302
495 4 0.428715 0.548369 0.0878482
496 1 0.419689 0.65689 0.144216
497 3 0.408651 0.718249 0.119656
498 4 0.428927 0.656464 0.181585
499 1 0.478056 0.734007 0.105664
500 3 0.4532 0.769073 0.0590352
501 4 0.518212 0.733865 0.10496
502 1 0.441183 0.706692 0.0200307
503 3 0.393271 0.745393 0.00100657
504 4 0.439277 0.667168 0.00432824
505 1 0.348669 0.727619 0.054405
506 3 0.319842 0.782277 0.0778077
507 4 0.327413 0.699253 0.0757946
508 1 0.378712 0.823845 0.0886786
509 3 0.372836 0.855135 0.142429
510 5 0.378501 0.802939 0.0824844
511 1 0.385886 0.790937 0.179597
512 3 0.447244 0.776257 0.189688
513 4 0.374901 0.751327 0.190921
514 1 0.466409 0.851785 0.202245
515 3 0.468791 0.833698 0.260399
516 4 0.463577 0.895113 0.20607
517 1 0.538726 0.810074 0.257027
518 3 0.585076 0.853488 0.244244
519 4 0.555297 0.772083 0.246961
520 1 0.605035 0.862688 0.311004
521 3 0.64302 0.809563 0.299806
522 5 0.57605 0.841836 0.309266
523 1 0.692969 0.833272 0.347971
524 3 0.661734 0.805304 0.393467
525 4 0.718249 0.858684 0.367624
526 1 0.695775 0.736222 0.388485
527 3 0.731034 0.757602 0.435265
528 4 0.716925 0.702802 0.373965
529 1 0.680555 0.729606 0.482322
530 3 0.700302 0.679832 0.518307
531 4 0.650987 0.751611 0.499836
532 1 0.659696 0.623357 0.490677
533 3 0.619435 0.60669 0.446513
534 4 0.637752 0.621256 0.523315
535 1 0.638017 0.52838 0.448451
536 3 0.666711 0.487379 0.486751
537 4 0.654137 0.518186 0.414303
538 1 0.608979 0.444419 0.504014
539 3 0.548361 0.429569 0.494627
540 4 0.609402 0.458162 0.540602
541 1 0.559347 0.351515 0.509776
542 3 0.556488 0.362844 0.570196
543 4 0.575626 0.311877 0.51106
544 1 0.484885 0.376842 0.567352
545 3 0.434803 0.339817 0.55014
546 4 0.474377 0.418013 0.55784
547 1 0.406877 0.335217 0.615265
548 3 0.399651 0.386411 0.655628
549 4 0.410609 0.301882 0.63902
550 1 0.333713 0.407592 0.634691
551 3 0.282148 0.369091 0.628249
552 4 0.323707 0.438201 0.609653
553 1 0.25229 0.389875 0.688971
554 3 0.243846 0.454868 0.707818
555 5 0.28686 0.327796 0.662723
556 1 0.17084 0.45166 0.69969
557 3 0.118773 0.412703 0.70271
558 4 0.162026 0.47358 0.667556
559 1 0.0980994 0.440075 0.76557
560 3 0.064879 0.383089 0.751931
561 4 0.0669172 0.46367 0.752334
562 1 0.12044 0.336069 0.770855
563 3 0.169014 0.339504 0.81152
564 4 0.128487 0.324342 0.73409
565 1 0.177908 0.259349 0.808702
566 3 0.175843 0.225872 0.756838
567 4 0.159908 0.236662 0.837037
568 1 0.237466 0.185638 0.768666
569 3 0.29181 0.190238 0.800398
570 5 0.222987 0.14735 0.705028
571 1 0.329186 0.149522 0.753567
572 3 0.325639 0.135665 0.694331
573 4 0.336916 0.114171 0.774655
574 1 0.398671 0.140719 0.686278
575 3 0.453438 0.14549 0.715972
576 4 0.399915 0.177575 0.665819
577 1 0.484674 0.0862886 0.679031
578 3 0.49775 0.0752719 0.620826
579 4 0.484806 0.043698 0.687033
580 1 0.546482 0.134019 0.616045
581 3 0.604823 0.120815 0.636805
582 4 0.553576 0.177035 0.613478
583 1 0.610011 0.0513643 0.60311
584 3 0.666102 0.0416253 0.576008
585 4 0.596194 0.0101366 0.600997
586 1 0.651914 0.0917402 0.524095
587 3 0.615993 0.145404 0.507411
588 4 0.64932 0.0634317 0.495332
589 1 0.673831 0.19427 0.501673
590 3 0.732119 0.21832 0.514859
591 4 0.658161 0.218859 0.530059
592 1 0.752025 0.22451 0.448376
593 3 0.729552 0.2512 0.39767
594 4 0.774604 0.194185 0.430207
595 1 0.75859 0.322298 0.411686
596 3 0.821483 0.323206 0.407157
597 4 0.754751 0.358869 0.431667
598 1 0.820425 0.329453 0.336244
599 3 0.79136 0.379341 0.305116
600 4 0.823257 0.299469 0.308991
601 1 0.850998 0.424941 0.303027
602 3 0.908968 0.410034 0.28433
603 4 0.860554 0.456316 0.327562
604 1 0.894171 0.416082 0.21679
605 3 0.939409 0.367728 0.2145
606 4 0.923686 0.445157 0.216588
607 1 0.891683 0.308867 0.229472
608 3 0.914871 0.261279 0.266011
609 5 0.884298 0.255595 0.208447
610 1 0.943036 0.313496 0.312313
611 3 0.905818 0.345155 0.352878
612 4 0.972868 0.343337 0.312413
613 1 0.900048 0.281439 0.394096
614 3 0.944306 0.317272 0.423841
615 4 0.904601 0.240438 0.4061
616 1 0.898168 0.347909 0.469564
617 3 0.918127 0.292427 0.499006
618 4 0.863863 0.361424 0.485845
619 1 0.966965 0.33215 0.538715
620 3 0.979088 0.397513 0.5518
621 4 0.998941 0.311224 0.523692
