LAMMPS protain data file

         153  atoms
         202  bonds
           0  angles
           0  dihedrals
           0  impropers

           5  atom types
           5  bond types
           0  angle types
           0  dihedral types
           0  improper types

-200.0	200.0	xlo xhi
-200.0	200.0	ylo yhi
-200.0	200.0	zlo zhi

Masses

           1	27.0
           2	14.0
           3	28.0
           4	60.0
           5	60.0

Atoms

           1	1	1	1	0.0	10.79599953	21.06599998	8.43400002
           2	1	1	3	0.0	8.57999992	20.23600006	8.77099991
           3	1	1	4	0.0	11.74499989	19.8939991	8.22299957
           4	1	2	1	0.0	7.84399986	20.57900047	6.11999989
           5	1	2	3	0.0	8.52999973	18.48600006	5.14799976
           6	1	2	4	0.0	7.67299986	21.40299988	4.85099983
           7	1	3	1	0.0	6.27199984	17.07799911	5.99399996
           8	1	3	3	0.0	4.03599977	17.73999977	5.52799988
           9	1	3	4	0.0	6.46899986	16.20100021	7.27099991
          10	1	4	1	0.0	3.36899996	15.30700016	4.36199999
          11	1	4	3	0.0	3.55999994	13.13000011	5.33300018
          12	1	4	4	0.0	3.41799998	14.72299957	2.9289999
          13	1	5	1	0.0	1.26100004	13.32400036	6.85300016
          14	1	5	3	0.0	-0.205	12.38500023	5.14499998
          15	1	5	4	0.0	0.289	13.90699959	7.89300013
          16	1	6	1	0.0	0.52200001	9.74699974	5.73099995
          17	1	6	3	0.0	-1.32200003	8.29800034	6.11999989
          18	1	6	4	0.0	1.625	8.71700001	5.42500019
          19	1	7	1	0.0	-1.48599994	8.98600006	8.85700035
          20	1	7	3	0.0	-0.991	11.01299953	9.96800041
          21	1	7	4	0.0	-0.81699997	7.89099979	9.67099953
          22	1	8	1	0.0	-3.26099992	11.05000019	11.5539999
          23	1	8	3	0.0	-1.98500001	9.73099995	13.08300018
          24	1	8	4	0.0	-4.61899996	10.75699997	12.18500042
          25	1	9	1	0.0	-1.00100005	11.87199974	14.46800041
          26	1	9	3	0.0	-1.55799997	14.05099964	15.2130003
          27	1	9	4	0.0	0.48300001	12.2159996	14.18400002
          28	1	10	1	0.0	-3.07999992	13.16300011	17.37400055
          29	1	10	3	0.0	-1.21000004	14.01399994	18.57500076
          30	1	10	4	0.0	-3.83299994	12.34700012	18.44000053
          31	1	11	1	0.0	-1.99800003	16.61000061	18.44400024
          32	1	11	3	0.0	-0.625	18.36000061	17.63999939
          33	1	11	5	0.0	-2.73099995	16.22760278	18.4152127
          34	1	12	1	0.0	0.27399999	17.02599907	15.43099976
          35	1	12	3	0.0	0.073	18.22800064	13.35499954
          36	1	12	4	0.0	1.49000001	16.07299995	15.4119997
          37	1	13	1	0.0	-1.39999998	16.36800003	12.13399982
          38	1	13	3	0.0	-2.52800012	14.25699997	12.36999989
          39	1	13	5	0.0	-0.98299998	16.09872682	10.33191845
          40	1	14	1	0.0	-3.94499993	14.63199997	9.92599964
          41	1	14	3	0.0	-2.8039999	14.93900013	7.85500002
          42	1	14	4	0.0	-5.25199986	15.43500042	9.75199986
          43	1	15	1	0.0	-3.47399998	12.33500004	6.96700001
          44	1	15	3	0.0	-4.88000011	13.76099968	5.67500019
          45	1	15	4	0.0	-4.29500008	11.05500031	6.81599998
          46	1	16	1	0.0	-3.02099991	14.46100044	3.80599999
          47	1	16	3	0.0	-2.1960001	16.54400063	3.01200008
          48	1	16	5	0.0	-2.79399991	13.50356818	2.3633877
          49	1	17	1	0.0	-1.81400001	17.65999985	5.47100019
          50	1	17	3	0.0	0.45100001	16.84199905	5.4289999
          51	1	17	4	0.0	-2.05900002	18.06800079	6.92299986
          52	1	18	1	0.0	1.42900002	19.3220005	4.48400021
          53	1	18	3	0.0	1.12600005	21.51399994	5.35500002
          54	1	18	4	0.0	1.68599999	19.7689991	3.03900003
          55	1	19	1	0.0	2.86299992	21.31800079	7.31099987
          56	1	19	3	0.0	4.89799976	20.20700073	7.82600021
          57	1	19	4	0.0	1.76999998	21.26499939	8.38899994
          58	1	20	1	0.0	5.87900019	22.3560009	9.31400013
          59	1	20	3	0.0	4.76800013	21.78800011	11.38700008
          60	1	20	4	0.0	6.36999989	23.82500076	9.37899971
          61	1	21	1	0.0	6.99100018	20.3390007	12.35700035
          62	1	21	3	0.0	9.34300041	20.77599907	12.02900028
          63	1	21	4	0.0	6.57299995	18.85099983	12.34799957
          64	1	22	1	0.0	10.01500034	20.25099945	14.63399982
          65	1	22	3	0.0	10.38000011	18.05400085	13.70499992
          66	1	22	4	0.0	9.96500015	19.97900009	16.11100006
          67	1	23	1	0.0	12.98600006	18.5720005	12.93400002
          68	1	23	3	0.0	13.22399998	16.1970005	13.15200043
          69	1	23	4	0.0	14.32699966	19.21899986	12.63899994
          70	1	24	1	0.0	13.7489996	16.22500038	15.88199997
          71	1	24	3	0.0	12.69299984	14.05700016	16.06699944
          72	1	24	5	0.0	13.44200039	14.66955866	15.61400429
          73	1	25	1	0.0	10.14099979	15.08399963	15.94699955
          74	1	25	3	0.0	9.5340004	13.20400047	14.6260004
          75	1	25	4	0.0	8.96399975	16.01600075	16.22800064
          76	1	26	1	0.0	10.10499954	14.38000011	12.17000008
          77	1	26	3	0.0	10.81499958	12.09399986	11.71199989
          78	1	26	4	0.0	10.37699986	15.39900017	11.06499958
          79	1	27	1	0.0	13.46100044	12.53600025	12.32900047
          80	1	27	3	0.0	13.36999989	10.14000034	12.76799965
          81	1	27	4	0.0	14.82400036	13.20899963	12.56200027
          82	1	28	1	0.0	12.96700001	10.46800041	15.53800011
          83	1	28	3	0.0	11.54800034	8.71399975	16.40399933
          84	1	28	4	0.0	13.43200016	11.05200005	16.87899971
          85	1	29	1	0.0	9.2159996	9.77900028	15.3380003
          86	1	29	3	0.0	8.24400043	8.45899963	13.57999992
          87	1	29	4	0.0	8.36900043	10.57800007	16.32799911
          88	1	30	1	0.0	7.32299995	10.56799984	12.12699986
          89	1	30	3	0.0	7.31899977	8.83899975	10.53199959
          90	1	30	4	0.0	6.95300007	11.94999981	11.57900047
          91	1	31	1	0.0	9.86999989	9.29199982	9.54800034
          92	1	31	3	0.0	9.86900043	6.91599989	9.23400021
          93	1	31	4	0.0	11.20800018	9.93900013	9.14299965
          94	1	32	1	0.0	10.98700047	6.42700005	11.82299995
          95	1	32	3	0.0	9.99300003	4.27400017	11.57299995
          96	1	32	4	0.0	11.54699993	6.65600014	13.22999954
          97	1	33	1	0.0	7.41699982	5.15600014	12.13500023
          98	1	33	3	0.0	5.51200008	4.61100006	10.79500008
          99	1	33	4	0.0	6.5630002	5.55200005	13.34899998
         100	1	34	1	0.0	6.32299995	5.88399982	8.50500011
         101	1	34	3	0.0	4.07499981	6.41400003	7.80800009
         102	1	34	5	0.0	7.04899979	5.03603305	6.7206439
         103	1	35	1	0.0	3.78699994	8.46700001	9.67500019
         104	1	35	3	0.0	2.72000003	10.23700047	8.50300026
         105	1	35	4	0.0	3.65700006	8.89099979	11.1420002
         106	1	36	1	0.0	4.98600006	11.23499966	7.39599991
         107	1	36	3	0.0	7.05000019	10.17399979	6.88800001
         108	1	36	4	0.0	5.0710001	12.53499985	8.15299988
         109	1	37	1	0.0	7.53599977	11.82699966	4.671
         110	1	37	3	0.0	7.12699986	14.19699955	4.51800013
         111	1	37	4	0.0	7.33500004	11.10200024	3.30900002
         112	1	38	1	0.0	9.65699959	14.83399963	3.78299999
         113	1	38	3	0.0	8.6590004	14.82600021	1.58399999
         114	1	38	4	0.0	11.14299965	14.72999954	3.45099998
         115	1	39	1	0.0	7.71999979	17.41699982	1.69500005
         116	1	39	3	0.0	8.30900002	19.1079998	0.077
         117	1	39	4	0.0	6.84399986	18.52099991	2.30500007
         118	1	40	1	0.0	10.22900009	17.54899979	-1.20599997
         119	1	40	3	0.0	8.51599979	16.55599976	-2.54999995
         120	1	40	4	0.0	11.48400021	16.69799995	-1.25999999
         121	1	41	1	0.0	9.16100025	17.97400093	-4.86899996
         122	1	41	3	0.0	8.06400013	16.0909996	-5.86399984
         123	1	41	4	0.0	10.08199978	18.80400085	-5.78900003
         124	1	42	1	0.0	10.31000042	14.41300011	-5.60300016
         125	1	42	3	0.0	8.69400024	12.64999962	-5.41300011
         126	1	42	4	0.0	11.74699974	13.88500023	-5.41300011
         127	1	43	1	0.0	8.27200031	13.00300026	-2.72300005
         128	1	43	3	0.0	6.02899981	12.34200001	-3.02999997
         129	1	43	4	0.0	8.54399967	13.20199966	-1.22099996
         130	1	44	1	0.0	5.12200022	14.84899998	-3.69099998
         131	1	44	3	0.0	3.55500007	13.68900013	-5.08300018
         132	1	44	4	0.0	4.91900015	16.37100029	-3.73600006
         133	1	45	1	0.0	5.329	13.50599957	-7.23000002
         134	1	45	3	0.0	4.1329999	11.45499992	-7.50299978
         135	1	45	4	0.0	6.5250001	13.63199997	-8.15699959
         136	1	46	1	0.0	5.92500019	9.98200035	-6.05999994
         137	1	46	3	0.0	3.97300005	8.68599987	-5.62900019
         138	1	46	4	0.0	7.1079998	9.48099995	-5.28700018
         139	1	47	1	0.0	3.12100005	10.26000023	-3.49300003
         140	1	47	3	0.0	0.90799999	9.58199978	-4.21500015
         141	1	47	4	0.0	3.08599997	11.21899986	-2.29299998
         142	1	48	1	0.0	0.61400002	11.57800007	-6.00600004
         143	1	48	3	0.0	-0.71700001	9.91499996	-7.17700005
         144	1	48	4	0.0	0.62300003	12.95300007	-6.67000008
         145	1	49	1	0.0	1.51400006	8.63500023	-8.30700016
         146	1	49	3	0.0	0.249	6.625	-8.00500011
         147	1	49	4	0.0	2.88199997	8.34500027	-8.86800003
         148	1	50	1	0.0	0.94800001	6.15700006	-5.49499989
         149	1	50	3	0.0	-1.07799995	5.20100021	-4.58500004
         150	1	50	4	0.0	2.0079999	5.76599979	-4.4749999
         151	1	51	1	0.0	-2.35899997	7.61800003	-4.16699982
         152	1	51	3	0.0	-3.40100002	7.03299999	-6.24599981
         153	1	51	4	0.0	-2.72199988	9.10700035	-4.11000013

Bond Coeffs

           1	200.0	3.77
           2	200.0	2.41
           3	200.0	2.50
           4	200.0	1.54
           5	200.0	1.54
Bonds

           1	2	1	2
           2	4	1	3
           3	1	1	4
           4	3	2	4
           5	2	4	5
           6	4	4	6
           7	1	4	7
           8	3	5	7
           9	2	7	8
          10	4	7	9
          11	1	7	10
          12	3	8	10
          13	2	10	11
          14	4	10	12
          15	1	10	13
          16	3	11	13
          17	2	13	14
          18	4	13	15
          19	1	13	16
          20	3	14	16
          21	2	16	17
          22	4	16	18
          23	1	16	19
          24	3	17	19
          25	2	19	20
          26	4	19	21
          27	1	19	22
          28	3	20	22
          29	2	22	23
          30	4	22	24
          31	1	22	25
          32	3	23	25
          33	2	25	26
          34	4	25	27
          35	1	25	28
          36	3	26	28
          37	2	28	29
          38	4	28	30
          39	1	28	31
          40	3	29	31
          41	2	31	32
          42	5	31	33
          43	1	31	34
          44	3	32	34
          45	2	34	35
          46	4	34	36
          47	1	34	37
          48	3	35	37
          49	2	37	38
          50	5	37	39
          51	1	37	40
          52	3	38	40
          53	2	40	41
          54	4	40	42
          55	1	40	43
          56	3	41	43
          57	2	43	44
          58	4	43	45
          59	1	43	46
          60	3	44	46
          61	2	46	47
          62	5	46	48
          63	1	46	49
          64	3	47	49
          65	2	49	50
          66	4	49	51
          67	1	49	52
          68	3	50	52
          69	2	52	53
          70	4	52	54
          71	1	52	55
          72	3	53	55
          73	2	55	56
          74	4	55	57
          75	1	55	58
          76	3	56	58
          77	2	58	59
          78	4	58	60
          79	1	58	61
          80	3	59	61
          81	2	61	62
          82	4	61	63
          83	1	61	64
          84	3	62	64
          85	2	64	65
          86	4	64	66
          87	1	64	67
          88	3	65	67
          89	2	67	68
          90	4	67	69
          91	1	67	70
          92	3	68	70
          93	2	70	71
          94	5	70	72
          95	1	70	73
          96	3	71	73
          97	2	73	74
          98	4	73	75
          99	1	73	76
         100	3	74	76
         101	2	76	77
         102	4	76	78
         103	1	76	79
         104	3	77	79
         105	2	79	80
         106	4	79	81
         107	1	79	82
         108	3	80	82
         109	2	82	83
         110	4	82	84
         111	1	82	85
         112	3	83	85
         113	2	85	86
         114	4	85	87
         115	1	85	88
         116	3	86	88
         117	2	88	89
         118	4	88	90
         119	1	88	91
         120	3	89	91
         121	2	91	92
         122	4	91	93
         123	1	91	94
         124	3	92	94
         125	2	94	95
         126	4	94	96
         127	1	94	97
         128	3	95	97
         129	2	97	98
         130	4	97	99
         131	1	97	100
         132	3	98	100
         133	2	100	101
         134	5	100	102
         135	1	100	103
         136	3	101	103
         137	2	103	104
         138	4	103	105
         139	1	103	106
         140	3	104	106
         141	2	106	107
         142	4	106	108
         143	1	106	109
         144	3	107	109
         145	2	109	110
         146	4	109	111
         147	1	109	112
         148	3	110	112
         149	2	112	113
         150	4	112	114
         151	1	112	115
         152	3	113	115
         153	2	115	116
         154	4	115	117
         155	1	115	118
         156	3	116	118
         157	2	118	119
         158	4	118	120
         159	1	118	121
         160	3	119	121
         161	2	121	122
         162	4	121	123
         163	1	121	124
         164	3	122	124
         165	2	124	125
         166	4	124	126
         167	1	124	127
         168	3	125	127
         169	2	127	128
         170	4	127	129
         171	1	127	130
         172	3	128	130
         173	2	130	131
         174	4	130	132
         175	1	130	133
         176	3	131	133
         177	2	133	134
         178	4	133	135
         179	1	133	136
         180	3	134	136
         181	2	136	137
         182	4	136	138
         183	1	136	139
         184	3	137	139
         185	2	139	140
         186	4	139	141
         187	1	139	142
         188	3	140	142
         189	2	142	143
         190	4	142	144
         191	1	142	145
         192	3	143	145
         193	2	145	146
         194	4	145	147
         195	1	145	148
         196	3	146	148
         197	2	148	149
         198	4	148	150
         199	1	148	151
         200	3	149	151
         201	2	151	152
         202	4	151	153

