ITEM: TIMESTEP
0
ITEM: NUMBER OF ATOMS
153
ITEM: BOX BOUNDS ss ss ss
-5.292 14.864
4.234 23.865
-8.908 18.615
ITEM: ATOMS id type xs ys zs
1 1 0.798174 0.857419 0.630091
2 3 0.688232 0.815139 0.642335
3 4 0.845257 0.797718 0.622425
4 1 0.651717 0.832612 0.546016
5 3 0.685751 0.725995 0.5107
6 4 0.643233 0.874586 0.499909
7 1 0.573725 0.654271 0.541438
8 3 0.46279 0.687993 0.524507
9 4 0.583499 0.609597 0.587836
10 1 0.429698 0.564057 0.482142
11 3 0.439174 0.453161 0.517422
12 4 0.432129 0.534308 0.430077
13 1 0.325114 0.463043 0.572648
14 3 0.252381 0.415211 0.510591
15 4 0.27689 0.492741 0.610435
16 1 0.28845 0.280831 0.531882
17 3 0.196964 0.20702 0.546016
18 4 0.343173 0.228363 0.520764
19 1 0.188827 0.242066 0.64546
20 3 0.213386 0.345321 0.685826
21 4 0.222018 0.186287 0.675035
22 1 0.100764 0.347206 0.743451
23 3 0.16407 0.280016 0.799004
24 4 0.0333896 0.332281 0.766377
25 1 0.212889 0.389078 0.849326
26 3 0.185255 0.500076 0.876394
27 4 0.286515 0.406602 0.839007
28 1 0.109744 0.454842 0.95491
29 3 0.20252 0.498192 0.998547
30 4 0.0723854 0.413275 0.993642
31 1 0.163425 0.630431 0.993787
32 3 0.231544 0.719576 0.964575
33 5 0.127059 0.610952 0.992741
34 1 0.276146 0.651622 0.884315
35 3 0.266174 0.712852 0.808887
36 4 0.336475 0.603077 0.883625
37 1 0.193094 0.618104 0.764524
38 3 0.13713 0.51057 0.773099
39 5 0.213782 0.604387 0.699049
40 1 0.0668287 0.529672 0.6843
41 3 0.123437 0.545311 0.609054
42 4 0.00198452 0.570577 0.677978
43 1 0.0901965 0.412664 0.57679
44 3 0.0204406 0.485304 0.529848
45 4 0.0494642 0.347461 0.571304
46 1 0.112671 0.520962 0.461941
47 3 0.153602 0.627069 0.433092
48 5 0.123933 0.47219 0.409526
49 1 0.172554 0.683918 0.522436
50 3 0.284928 0.642249 0.52091
51 4 0.160399 0.704702 0.575192
52 1 0.333449 0.76858 0.486575
53 3 0.318416 0.88024 0.518221
54 4 0.3462 0.79135 0.434073
55 1 0.404594 0.870256 0.589289
56 3 0.505557 0.813662 0.608001
57 4 0.350367 0.867556 0.628456
58 1 0.554227 0.923132 0.662064
59 3 0.499107 0.894198 0.737383
60 4 0.578587 0.997962 0.664426
61 1 0.609397 0.820386 0.772627
62 3 0.726087 0.842647 0.760709
63 4 0.588658 0.744588 0.772299
64 1 0.759426 0.815903 0.855357
65 3 0.777535 0.703989 0.821604
66 4 0.756946 0.802048 0.909022
67 1 0.906827 0.730375 0.793591
68 3 0.918635 0.609393 0.801511
69 4 0.973358 0.763333 0.782872
70 1 0.944681 0.61082 0.900701
71 3 0.89229 0.500382 0.907423
72 5 0.92945 0.531586 0.890964
73 1 0.765678 0.552697 0.903063
74 3 0.735563 0.45693 0.855067
75 4 0.707283 0.600173 0.913273
76 1 0.763892 0.516836 0.765832
77 3 0.799117 0.400387 0.749192
78 4 0.777386 0.568743 0.725684
79 1 0.930393 0.422903 0.771609
80 3 0.925878 0.300851 0.787559
81 4 0.998015 0.457185 0.780075
82 1 0.905884 0.317559 0.888203
83 3 0.835483 0.22821 0.919667
84 4 0.928954 0.347308 0.936925
85 1 0.719786 0.282461 0.880936
86 3 0.671562 0.215221 0.817062
87 4 0.677763 0.323162 0.916906
88 1 0.625868 0.322653 0.76427
89 3 0.62567 0.234578 0.706318
90 4 0.607511 0.393052 0.744359
91 1 0.752233 0.257654 0.670566
92 3 0.752183 0.136621 0.659158
93 4 0.818615 0.290612 0.655851
94 1 0.80765 0.111711 0.753225
95 3 0.758335 0.00203759 0.744141
96 4 0.835434 0.123376 0.804345
97 1 0.630532 0.0469665 0.764561
98 3 0.536019 0.0192043 0.715874
99 4 0.588162 0.0671387 0.808669
100 1 0.576255 0.0840507 0.632671
101 3 0.464725 0.111049 0.607347
102 5 0.612274 0.0408554 0.567839
103 1 0.450437 0.215628 0.675181
104 3 0.397499 0.305792 0.632598
105 4 0.443987 0.237227 0.728482
106 1 0.509923 0.35663 0.592377
107 3 0.612324 0.302583 0.57392
108 4 0.51414 0.422852 0.619882
109 1 0.636436 0.386786 0.493369
110 3 0.616144 0.507514 0.48781
111 4 0.626464 0.349855 0.443883
112 1 0.741665 0.539962 0.461105
113 3 0.692151 0.539555 0.381208
114 4 0.81539 0.534665 0.449043
115 1 0.645565 0.67154 0.385241
116 3 0.674787 0.757679 0.326454
117 4 0.602104 0.727777 0.407405
118 1 0.770044 0.678264 0.279839
119 3 0.685057 0.627681 0.231007
120 4 0.832308 0.634914 0.277877
121 1 0.717057 0.699913 0.14675
122 3 0.662631 0.603994 0.110598
123 4 0.762751 0.742193 0.113323
124 1 0.774062 0.518517 0.120081
125 3 0.693888 0.42871 0.126985
126 4 0.845356 0.49162 0.126985
127 1 0.672951 0.446691 0.224721
128 3 0.561669 0.41302 0.213567
129 4 0.686446 0.456828 0.279294
130 1 0.51667 0.540726 0.189551
131 3 0.438926 0.481636 0.138975
132 4 0.506599 0.618257 0.187916
133 1 0.52694 0.472314 0.0609672
134 3 0.467603 0.367837 0.0510482
135 4 0.586277 0.478733 0.0272863
136 1 0.556509 0.292802 0.103477
137 3 0.459665 0.226784 0.119137
138 4 0.615201 0.267281 0.131563
139 1 0.417394 0.306963 0.196745
140 3 0.307601 0.272426 0.170512
141 4 0.415658 0.355815 0.240344
142 1 0.293014 0.374102 0.105439
143 3 0.22698 0.289389 0.0628929
144 4 0.293461 0.444144 0.0813138
145 1 0.337666 0.224186 0.0218363
146 3 0.274906 0.121797 0.0328089
147 4 0.405537 0.209414 0.00145333
148 1 0.309585 0.0979573 0.124005
149 3 0.209069 0.0492588 0.157069
150 4 0.362175 0.0780398 0.161065
151 1 0.145515 0.17238 0.172256
152 3 0.0938182 0.142581 0.0967191
153 4 0.127505 0.24823 0.174327
ITEM: TIMESTEP
1000
ITEM: NUMBER OF ATOMS
153
ITEM: BOX BOUNDS ss ss ss
-5.292 14.864
4.234 23.865
-8.908 18.615
ITEM: ATOMS id type xs ys zs
1 1 0.800976 0.850533 0.612799
2 3 0.686268 0.83074 0.627734
3 4 0.841675 0.784254 0.620929
4 1 0.647783 0.82825 0.538648
5 3 0.671305 0.716009 0.516038
6 4 0.637816 0.871554 0.496579
7 1 0.566857 0.658345 0.541039
8 3 0.446595 0.670666 0.534084
9 4 0.575592 0.622077 0.590089
10 1 0.424361 0.562432 0.490699
11 3 0.424659 0.46402 0.540789
12 4 0.421408 0.530129 0.440898
13 1 0.311321 0.471956 0.579052
14 3 0.226419 0.415325 0.528129
15 4 0.267865 0.506964 0.61531
16 1 0.262231 0.297459 0.536137
17 3 0.169757 0.236042 0.568037
18 4 0.310826 0.241668 0.520764
19 1 0.186966 0.253806 0.658091
20 3 0.2059 0.358028 0.702883
21 4 0.223411 0.195511 0.684128
22 1 0.105178 0.352972 0.755154
23 3 0.160559 0.304486 0.824798
24 4 0.0306957 0.330052 0.769883
25 1 0.213703 0.403002 0.862596
26 3 0.165378 0.511127 0.889846
27 4 0.282999 0.42039 0.851104
28 1 0.104835 0.476881 0.961675
29 3 0.196028 0.524743 1.01238
30 4 0.0837009 0.425537 1.00183
31 1 0.171024 0.646912 1.00183
32 3 0.263668 0.711191 0.973646
33 5 0.181099 0.568113 0.987195
34 1 0.274623 0.66439 0.887411
35 3 0.244861 0.725199 0.817891
36 4 0.33641 0.617842 0.8921
37 1 0.191954 0.634773 0.76898
38 3 0.119677 0.534338 0.779429
39 5 0.151904 0.602283 0.812777
40 1 0.061384 0.555432 0.696417
41 3 0.133158 0.535602 0.629105
42 4 -0.00512026 0.587008 0.693543
43 1 0.0695353 0.441744 0.586295
44 3 0.00943541 0.515621 0.538517
45 4 0.0271576 0.376009 0.5837
46 1 0.0903184 0.545401 0.473647
47 3 0.074638 0.665232 0.474538
48 5 0.0257837 0.502387 0.475206
49 1 0.162742 0.70433 0.532022
50 3 0.278639 0.675505 0.530068
51 4 0.143297 0.712925 0.58336
52 1 0.32284 0.781742 0.491734
53 3 0.322143 0.897244 0.519701
54 4 0.336099 0.797943 0.437576
55 1 0.395197 0.890475 0.591267
56 3 0.500059 0.839152 0.604373
57 4 0.342068 0.883515 0.632745
58 1 0.547669 0.929121 0.661359
59 3 0.511137 0.903003 0.745433
60 4 0.57228 1.00236 0.663851
61 1 0.610061 0.827564 0.769921
62 3 0.725195 0.853898 0.763144
63 4 0.585304 0.755411 0.767253
64 1 0.762589 0.815552 0.847157
65 3 0.788981 0.706555 0.815393
66 4 0.762534 0.810205 0.903108
67 1 0.904678 0.729078 0.787129
68 3 0.917127 0.608196 0.805131
69 4 0.969309 0.7699 0.780715
70 1 0.943724 0.614983 0.89505
71 3 0.88098 0.517611 0.917981
72 5 0.87505 0.628956 0.913424
73 1 0.765785 0.557003 0.896273
74 3 0.724506 0.471921 0.842876
75 4 0.710804 0.607264 0.905615
76 1 0.758576 0.515967 0.760181
77 3 0.805636 0.408037 0.734414
78 4 0.765025 0.562605 0.71889
79 1 0.919551 0.427253 0.769283
80 3 0.939696 0.310157 0.795508
81 4 0.989459 0.461475 0.776708
82 1 0.900458 0.319541 0.88272
83 3 0.822455 0.234614 0.899901
84 4 0.921265 0.346835 0.931767
85 1 0.718664 0.285179 0.871883
86 3 0.639957 0.23763 0.814727
87 4 0.679125 0.328809 0.91174
88 1 0.636383 0.334703 0.754882
89 3 0.634677 0.267194 0.681383
90 4 0.629426 0.410282 0.739249
91 1 0.755504 0.251938 0.668057
92 3 0.794669 0.138813 0.664202
93 4 0.815188 0.297217 0.651439
94 1 0.796956 0.110581 0.750688
95 3 0.737741 0.0053194 0.751283
96 4 0.817206 0.123828 0.805986
97 1 0.619053 0.0433066 0.763774
98 3 0.536192 0.0153836 0.704132
99 4 0.572726 0.0797957 0.806692
100 1 0.571329 0.0851731 0.63216
101 3 0.469663 0.12476 0.603861
102 5 0.576324 0.15788 0.655344
103 1 0.447956 0.215082 0.666694
104 3 0.411066 0.314338 0.622075
105 4 0.438368 0.242925 0.719157
106 1 0.516483 0.346718 0.578977
107 3 0.626436 0.30941 0.559902
108 4 0.514072 0.410179 0.607139
109 1 0.640708 0.377399 0.48155
110 3 0.641831 0.497829 0.484044
111 4 0.624538 0.342325 0.435936
112 1 0.746342 0.532671 0.448204
113 3 0.706117 0.534493 0.366109
114 4 0.820485 0.521588 0.438275
115 1 0.655834 0.64661 0.363411
116 3 0.734583 0.72771 0.324572
117 4 0.619882 0.707786 0.381652
118 1 0.776449 0.656773 0.261371
119 3 0.70246 0.604642 0.204826
120 4 0.838095 0.607958 0.263744
121 1 0.734371 0.668683 0.129949
122 3 0.700886 0.568915 0.084624
123 4 0.777343 0.71243 0.0929583
124 1 0.79191 0.488613 0.109025
125 3 0.712935 0.393018 0.124843
126 4 0.86406 0.469832 0.119526
127 1 0.686902 0.424359 0.212589
128 3 0.571211 0.401163 0.198328
129 4 0.697909 0.436125 0.265991
130 1 0.532314 0.515191 0.172481
131 3 0.460347 0.477159 0.105433
132 4 0.520093 0.590836 0.170683
133 1 0.546977 0.437341 0.0486929
134 3 0.512863 0.323267 0.0286777
135 4 0.607455 0.446405 0.0156237
136 1 0.578402 0.262333 0.0934526
137 3 0.480392 0.199862 0.11798
138 4 0.634659 0.231374 0.122538
139 1 0.438557 0.27661 0.181015
140 3 0.328824 0.255688 0.155851
141 4 0.435661 0.32741 0.225106
142 1 0.316025 0.336218 0.08813
143 3 0.263667 0.255445 0.0320649
144 4 0.318066 0.399933 0.0616323
145 1 0.362147 0.181497 0.0118691
146 3 0.316991 0.0751862 0.0248327
147 4 0.423911 0.179045 -0.0121365
148 1 0.340145 0.0562535 0.112916
149 3 0.239609 0.0302052 0.15004
150 4 0.389916 0.0455874 0.150942
151 1 0.173718 0.132968 0.148283
152 3 0.0869434 0.212593 0.170485
153 4 0.151492 0.205643 0.143646
ITEM: TIMESTEP
2000
ITEM: NUMBER OF ATOMS
153
ITEM: BOX BOUNDS ss ss ss
-5.292 14.864
4.234 23.865
-8.908 18.615
ITEM: ATOMS id type xs ys zs
1 1 0.807523 0.858755 0.64191
2 3 0.692647 0.839529 0.642065
3 4 0.855083 0.794094 0.627075
4 1 0.675586 0.820669 0.551233
5 3 0.703087 0.704654 0.543234
6 4 0.668356 0.857613 0.502902
7 1 0.582849 0.654975 0.549762
8 3 0.474827 0.681734 0.521402
9 4 0.579094 0.625094 0.600293
10 1 0.438456 0.564865 0.487291
11 3 0.424984 0.472187 0.538849
12 4 0.448231 0.540132 0.434788
13 1 0.310952 0.478267 0.566882
14 3 0.232821 0.417857 0.520377
15 4 0.274322 0.529957 0.598746
16 1 0.2722 0.301007 0.531053
17 3 0.182682 0.230402 0.556652
18 4 0.334494 0.256209 0.520311
19 1 0.192562 0.249072 0.647293
20 3 0.209417 0.352625 0.694431
21 4 0.223527 0.18742 0.676284
22 1 0.108465 0.343391 0.745163
23 3 0.153519 0.296085 0.818615
24 4 0.031625 0.338119 0.757536
25 1 0.219855 0.394624 0.851337
26 3 0.160181 0.4945 0.874526
27 4 0.290063 0.419045 0.845137
28 1 0.112139 0.461243 0.95577
29 3 0.179288 0.512998 1.01576
30 4 0.0761937 0.41003 0.986415
31 1 0.169432 0.635137 0.990357
32 3 0.273543 0.68238 0.968479
33 5 0.153967 0.623599 0.936049
34 1 0.269174 0.664708 0.87827
35 3 0.246311 0.720509 0.804835
36 4 0.327802 0.615621 0.877498
37 1 0.187685 0.62892 0.7578
38 3 0.106606 0.536864 0.764587
39 5 0.248453 0.658587 0.732931
40 1 0.0522556 0.540762 0.681885
41 3 0.117466 0.528782 0.607366
42 4 -0.00959317 0.584801 0.672627
43 1 0.0755185 0.418842 0.577259
44 3 0.0165656 0.492948 0.52188
45 4 0.0368253 0.354867 0.56944
46 1 0.105209 0.525109 0.460975
47 3 0.085737 0.644377 0.453542
48 5 0.103917 0.592915 0.487995
49 1 0.161751 0.690602 0.51696
50 3 0.279782 0.674866 0.52776
51 4 0.140886 0.703762 0.56709
52 1 0.324456 0.77323 0.480277
53 3 0.313806 0.889346 0.50963
54 4 0.332759 0.789871 0.424465
55 1 0.388034 0.877543 0.584083
56 3 0.491105 0.827678 0.611111
57 4 0.335664 0.876315 0.625547
58 1 0.550062 0.929254 0.648158
59 3 0.506152 0.904616 0.725721
60 4 0.566454 1.00521 0.650342
61 1 0.596405 0.833476 0.763429
62 3 0.706998 0.874277 0.75993
63 4 0.578957 0.758564 0.761292
64 1 0.746826 0.833207 0.842894
65 3 0.778384 0.722253 0.809597
66 4 0.748838 0.820898 0.896559
67 1 0.893335 0.744438 0.783443
68 3 0.915131 0.626665 0.801557
69 4 0.959497 0.780245 0.77388
70 1 0.937237 0.634453 0.892658
71 3 0.872965 0.53201 0.913478
72 5 0.968745 0.631357 0.943803
73 1 0.754245 0.574302 0.891818
74 3 0.729089 0.476126 0.838854
75 4 0.698751 0.620261 0.902639
76 1 0.760278 0.528975 0.758915
77 3 0.812031 0.426792 0.726114
78 4 0.767333 0.584591 0.717947
79 1 0.920095 0.43618 0.773476
80 3 0.928383 0.321932 0.80285
81 4 0.985467 0.4767 0.782942
82 1 0.896969 0.331999 0.888897
83 3 0.817945 0.255394 0.919279
84 4 0.914898 0.368508 0.935115
85 1 0.714835 0.300411 0.879286
86 3 0.661459 0.236411 0.815772
87 4 0.671051 0.348902 0.912317
88 1 0.628399 0.334465 0.761013
89 3 0.63344 0.258882 0.692463
90 4 0.614579 0.410677 0.742151
91 1 0.751345 0.264826 0.674579
92 3 0.782247 0.144282 0.675355
93 4 0.814081 0.302015 0.656236
94 1 0.794637 0.123876 0.764726
95 3 0.738447 0.0142379 0.754503
96 4 0.80885 0.141092 0.819472
97 1 0.622409 0.0592176 0.770283
98 3 0.546539 0.0174417 0.712074
99 4 0.577117 0.0844418 0.814787
100 1 0.578162 0.0823798 0.639831
101 3 0.466533 0.120222 0.615728
102 5 0.616745 0.147602 0.6488
103 1 0.450655 0.215681 0.676162
104 3 0.406416 0.297738 0.621262
105 4 0.436619 0.245224 0.725877
106 1 0.510083 0.348129 0.588783
107 3 0.626108 0.310743 0.567802
108 4 0.510592 0.416539 0.610962
109 1 0.640314 0.372199 0.489255
110 3 0.626469 0.491225 0.475148
111 4 0.624403 0.324532 0.446069
112 1 0.744287 0.521845 0.450329
113 3 0.705192 0.526267 0.3692
114 4 0.817485 0.507848 0.438703
115 1 0.653845 0.645983 0.369128
116 3 0.72945 0.724047 0.328067
117 4 0.608378 0.705984 0.386659
118 1 0.776133 0.645925 0.265085
119 3 0.696229 0.597331 0.210319
120 4 0.835586 0.602362 0.262631
121 1 0.730809 0.650868 0.131669
122 3 0.702323 0.551464 0.0814214
123 4 0.773136 0.694242 0.0970088
124 1 0.780036 0.470981 0.118145
125 3 0.701739 0.380718 0.131087
126 4 0.850777 0.442477 0.118407
127 1 0.674252 0.403595 0.22106
128 3 0.553733 0.391609 0.219153
129 4 0.691673 0.42947 0.271811
130 1 0.523615 0.502176 0.176487
131 3 0.453637 0.454706 0.115281
132 4 0.522258 0.577608 0.173388
133 1 0.540346 0.418145 0.0556077
134 3 0.500179 0.306696 0.0352366
135 4 0.59942 0.42722 0.0187425
136 1 0.557225 0.243714 0.105836
137 3 0.463014 0.182906 0.139732
138 4 0.611748 0.216402 0.137686
139 1 0.415289 0.274209 0.19338
140 3 0.305373 0.256962 0.177893
141 4 0.418434 0.327593 0.235922
142 1 0.295982 0.328007 0.10056
143 3 0.24627 0.244413 0.0474577
144 4 0.305083 0.396201 0.071525
145 1 0.340473 0.176287 0.0225733
146 3 0.299615 0.0622592 0.0313186
147 4 0.410732 0.167394 -0.000768199
148 1 0.308836 0.0520382 0.123186
149 3 0.206138 0.00901174 0.157337
150 4 0.358508 0.0490649 0.165204
151 1 0.150184 0.12283 0.178023
152 3 0.148077 0.149637 0.263491
153 4 0.141371 0.202503 0.172116
ITEM: TIMESTEP
3000
ITEM: NUMBER OF ATOMS
153
ITEM: BOX BOUNDS ss ss ss
-5.292 14.864
4.234 23.865
-8.908 18.615
ITEM: ATOMS id type xs ys zs
1 1 0.801771 0.851306 0.617036
2 3 0.685876 0.812924 0.621973
3 4 0.846021 0.793001 0.613286
4 1 0.65322 0.829152 0.535964
5 3 0.674456 0.715259 0.513221
6 4 0.644406 0.867003 0.487705
7 1 0.571341 0.659917 0.541831
8 3 0.455734 0.667305 0.517842
9 4 0.576155 0.62859 0.594357
10 1 0.438856 0.547247 0.483687
11 3 0.432196 0.460607 0.544587
12 4 0.455806 0.506732 0.440837
13 1 0.316543 0.474409 0.573547
14 3 0.227424 0.411946 0.541377
15 4 0.271898 0.523201 0.602696
16 1 0.272107 0.295043 0.538985
17 3 0.174727 0.240917 0.5664
18 4 0.332042 0.246246 0.525704
19 1 0.185262 0.260563 0.656725
20 3 0.199962 0.36652 0.698105
21 4 0.214666 0.200331 0.687631
22 1 0.0982405 0.3639 0.749928
23 3 0.149393 0.313749 0.822802
24 4 0.025162 0.352222 0.770763
25 1 0.206126 0.41877 0.857468
26 3 0.1568 0.522829 0.881955
27 4 0.27673 0.436681 0.846665
28 1 0.107837 0.493764 0.961712
29 3 0.185934 0.546305 1.01672
30 4 0.0700419 0.450983 0.998038
31 1 0.164619 0.668695 0.989372
32 3 0.26924 0.717935 0.965936
33 5 0.221506 0.710357 0.97428
34 1 0.269621 0.683184 0.879079
35 3 0.234188 0.741447 0.805173
36 4 0.32415 0.630178 0.875329
37 1 0.188586 0.646314 0.759216
38 3 0.131743 0.537478 0.758948
39 5 0.116612 0.671547 0.766112
40 1 0.0581231 0.556216 0.689511
41 3 0.137475 0.510529 0.634488
42 4 -0.00445046 0.596717 0.681212
43 1 0.069445 0.432888 0.583166
44 3 0.000552064 0.480371 0.518173
45 4 0.0232877 0.373601 0.581256
46 1 0.0940192 0.531855 0.467676
47 3 0.0719181 0.652267 0.462972
48 5 0.0948831 0.485173 0.426455
49 1 0.164127 0.692826 0.518547
50 3 0.27886 0.67909 0.529043
51 4 0.152012 0.712535 0.56877
52 1 0.323881 0.775596 0.480558
53 3 0.303202 0.878073 0.521508
54 4 0.335078 0.796272 0.427203
55 1 0.397597 0.883942 0.580989
56 3 0.503046 0.834122 0.599371
57 4 0.342705 0.881111 0.620346
58 1 0.556594 0.930731 0.645037
59 3 0.51527 0.903579 0.724796
60 4 0.577635 1.00941 0.650821
61 1 0.609993 0.838374 0.758054
62 3 0.726608 0.855413 0.749096
63 4 0.5845 0.763824 0.763141
64 1 0.760495 0.833971 0.836108
65 3 0.797186 0.72438 0.813622
66 4 0.761173 0.827139 0.892962
67 1 0.906009 0.743703 0.778331
68 3 0.936149 0.630993 0.804611
69 4 0.972588 0.777408 0.766168
70 1 0.932967 0.649383 0.893181
71 3 0.87782 0.544466 0.909315
72 5 0.896164 0.663618 0.844955
73 1 0.763462 0.571308 0.893198
74 3 0.721897 0.483799 0.842751
75 4 0.698621 0.614265 0.907485
76 1 0.757648 0.524845 0.760326
77 3 0.809186 0.419116 0.7324
78 4 0.76589 0.580789 0.720183
79 1 0.920097 0.432498 0.771399
80 3 0.938396 0.316316 0.804563
81 4 0.987184 0.470666 0.778774
82 1 0.894837 0.335471 0.887652
83 3 0.815889 0.257068 0.922368
84 4 0.919842 0.369411 0.936577
85 1 0.710186 0.299253 0.88174
86 3 0.660375 0.240376 0.817972
87 4 0.67521 0.351479 0.914775
88 1 0.626509 0.339663 0.765795
89 3 0.631016 0.267318 0.69593
90 4 0.623564 0.41603 0.745928
91 1 0.751514 0.257983 0.678716
92 3 0.760331 0.140172 0.67639
93 4 0.807576 0.298938 0.663086
94 1 0.793561 0.114043 0.762635
95 3 0.725935 0.0125292 0.762637
96 4 0.826361 0.127718 0.809921
97 1 0.614566 0.0618505 0.78292
98 3 0.551497 0.00901638 0.720673
99 4 0.568233 0.09278 0.820685
100 1 0.565383 0.0876336 0.649602
101 3 0.468075 0.13627 0.613592
102 5 0.596679 0.15578 0.663798
103 1 0.439916 0.221418 0.680569
104 3 0.407405 0.31083 0.625934
105 4 0.428681 0.254467 0.727156
106 1 0.511593 0.346725 0.586621
107 3 0.620353 0.303137 0.561719
108 4 0.510603 0.414703 0.613056
109 1 0.632964 0.375221 0.487925
110 3 0.621737 0.49483 0.468436
111 4 0.627955 0.33168 0.44368
112 1 0.742798 0.52236 0.450057
113 3 0.708069 0.530669 0.36534
114 4 0.817663 0.51819 0.445741
115 1 0.652941 0.644189 0.36569
116 3 0.727699 0.719177 0.326347
117 4 0.606784 0.69754 0.384584
118 1 0.769443 0.641314 0.260391
119 3 0.697705 0.584175 0.202316
120 4 0.830416 0.599447 0.27087
121 1 0.728996 0.647369 0.127224
122 3 0.704013 0.547136 0.0795697
123 4 0.769268 0.689825 0.0904979
124 1 0.78981 0.465832 0.115996
125 3 0.72174 0.367959 0.134777
126 4 0.860136 0.446211 0.126389
127 1 0.683338 0.402732 0.219203
128 3 0.564387 0.396603 0.232791
129 4 0.694578 0.420614 0.273129
130 1 0.527593 0.488876 0.176852
131 3 0.455078 0.448171 0.115537
132 4 0.519476 0.567319 0.175263
133 1 0.543449 0.40933 0.0566412
134 3 0.50567 0.296338 0.0440994
135 4 0.599144 0.430924 0.0217438
136 1 0.577872 0.230583 0.102561
137 3 0.483277 0.164548 0.138134
138 4 0.636457 0.222588 0.136172
139 1 0.433514 0.250319 0.191565
140 3 0.327703 0.223265 0.161322
141 4 0.427045 0.304338 0.232394
142 1 0.313346 0.305304 0.0945302
143 3 0.261291 0.222744 0.0400401
144 4 0.311826 0.374917 0.0723238
145 1 0.363483 0.152757 0.024435
146 3 0.307111 0.0449146 0.0428187
147 4 0.433149 0.138289 0.00938168
148 1 0.336533 0.0336935 0.127961
149 3 0.236599 0.00241305 0.174443
150 4 0.386623 0.0202435 0.169483
151 1 0.170488 0.105434 0.158664
152 3 0.124731 0.0952374 0.237699
153 4 0.150137 0.178393 0.163525
